[Molden Format]
[N_Atoms]
                    2
[Atoms] (AU)
O1          1      8           0.00000000      0.00000000      0.00000000
H2          2      1           1.88972612      0.00000000      0.00000000
[5D]
[7F]
[9G]
[Charge] (Mulliken)
   0.0000000000000000     
   0.0000000000000000     
[GTO] (AU)
   1
   s  12
  6.142000000E+04  9.000006336E-05
  9.199000000E+03  6.980004914E-04
  2.091000000E+03  3.664002579E-03
  5.909000000E+02  1.521801071E-02
  1.923000000E+02  5.242303690E-02
  6.932000000E+01  1.459211027E-01
  2.697000000E+01  3.052582149E-01
  1.110000000E+01  3.985082805E-01
  4.682000000E+00  2.169801527E-01
  1.428000000E+00  1.759401239E-02
  5.547000000E-01 -2.502001761E-03
  2.067000000E-01  9.540006716E-04
   s  12
  6.142000000E+04 -2.000000177E-05
  9.199000000E+03 -1.590000141E-04
  2.091000000E+03 -8.290000736E-04
  5.909000000E+02 -3.508000311E-03
  1.923000000E+02 -1.215600108E-02
  6.932000000E+01 -3.626100322E-02
  2.697000000E+01 -8.299200736E-02
  1.110000000E+01 -1.520900135E-01
  4.682000000E+00 -1.153310102E-01
  1.428000000E+00  2.889790256E-01
  5.547000000E-01  5.861280520E-01
  2.067000000E-01  2.776240246E-01
   s   1
  1.428000000E+00  1.000000000E+00
   s   1
  5.547000000E-01  1.000000000E+00
   s   1
  2.067000000E-01  1.000000000E+00
   p   6
  6.342000000E+01  6.043996276E-03
  1.466000000E+01  4.179897424E-02
  4.459000000E+00  1.611429007E-01
  1.531000000E+00  3.567307802E-01
  5.302000000E-01  4.483087238E-01
  1.750000000E-01  2.449398491E-01
   p   1
  1.531000000E+00  1.000000000E+00
   p   1
  5.302000000E-01  1.000000000E+00
   p   1
  1.750000000E-01  1.000000000E+00
   d   1
  3.775000000E+00  1.000000000E+00
   d   1
  1.300000000E+00  1.000000000E+00
   d   1
  4.440000000E-01  1.000000000E+00
   f   1
  2.666000000E+00  1.000000000E+00
   f   1
  8.590000000E-01  1.000000000E+00
   g   1
  1.846000000E+00  1.000000000E+00
 
   2
   s   6
  8.264000000E+01  2.006000801E-03
  1.241000000E+01  1.534300612E-02
  2.824000000E+00  7.557903017E-02
  7.977000000E-01  2.568751025E-01
  2.581000000E-01  4.973681985E-01
  8.989000000E-02  2.961331182E-01
   s   1
  7.977000000E-01  1.000000000E+00
   s   1
  2.581000000E-01  1.000000000E+00
   s   1
  8.989000000E-02  1.000000000E+00
   p   1
  2.292000000E+00  1.000000000E+00
   p   1
  8.380000000E-01  1.000000000E+00
   p   1
  2.920000000E-01  1.000000000E+00
   d   1
  2.062000000E+00  1.000000000E+00
   d   1
  6.620000000E-01  1.000000000E+00
   f   1
  1.397000000E+00  1.000000000E+00
 
[MO]
Sym=     1a  
Ene=   -20.6860
Spin= Alpha
Occup=    2.00000
   1         1.01267194
   2         0.03623003
   3        -0.01009794
   4        -0.02222583
   5        -0.00889388
   6         0.00001864
   7        -0.00000000
   8        -0.00000000
   9         0.00000033
  10         0.00000000
  11         0.00000000
  12        -0.00000043
  13         0.00000000
  14         0.00000000
  15         0.00000069
  16         0.00000000
  17         0.00000000
  18         0.00000000
  19        -0.00000000
  20        -0.00000000
  21        -0.00000000
  22        -0.00000000
  23        -0.00000000
  24         0.00000000
  25         0.00000000
  26         0.00000000
  27         0.00000000
  28        -0.00000000
  29         0.00000000
  30        -0.00000000
  31         0.00000000
  32         0.00000000
  33         0.00000000
  34         0.00000000
  35         0.00000000
  36        -0.00000000
  37        -0.00000000
  38         0.00000000
  39         0.00000000
  40        -0.00000000
  41        -0.00000000
  42        -0.00000000
  43         0.00000000
  44        -0.00000000
  45         0.00000000
  46         0.00000000
  47        -0.00000000
  48        -0.00000000
  49         0.00000000
  50         0.00000000
  51        -0.00000000
  52         0.00000000
  53        -0.00000000
  54         0.00000000
  55         0.00000000
  56         0.00184028
  57        -0.00001739
  58        -0.00026178
  59        -0.00018725
  60        -0.00000000
  61         0.00000000
  62         0.00000000
  63         0.00000000
  64        -0.00000000
  65        -0.00000000
  66         0.00000000
  67        -0.00000000
  68        -0.00000000
  69         0.00000000
  70         0.00000000
  71        -0.00000000
  72        -0.00000000
  73        -0.00000000
  74         0.00000000
  75         0.00000000
  76         0.00000000
  77        -0.00000000
  78         0.00000000
  79         0.00000000
  80        -0.00000000
  81         0.00000000
  82        -0.00000000
  83        -0.00000000
  84         0.00000000
  85        -0.00000000
Sym=     2a  
Ene=    -1.4200
Spin= Alpha
Occup=    2.00000
   1        -0.01463592
   2         0.84857790
   3         0.00661484
   4        -0.01941410
   5         0.01480262
   6         0.08142173
   7        -0.00000000
   8        -0.00000000
   9         0.00145034
  10         0.00000000
  11         0.00000000
  12        -0.00186536
  13        -0.00000000
  14        -0.00000000
  15         0.00299429
  16         0.00000000
  17         0.00000000
  18         0.00000000
  19         0.00000000
  20        -0.00000000
  21        -0.00000000
  22         0.00000000
  23        -0.00000000
  24        -0.00000000
  25         0.00000000
  26         0.00000000
  27        -0.00000000
  28        -0.00000000
  29        -0.00000000
  30         0.00000000
  31         0.00000000
  32        -0.00000000
  33         0.00000000
  34        -0.00000000
  35         0.00000000
  36        -0.00000000
  37        -0.00000000
  38         0.00000000
  39         0.00000000
  40         0.00000000
  41        -0.00000000
  42         0.00000000
  43        -0.00000000
  44         0.00000000
  45         0.00000000
  46        -0.00000000
  47         0.00000000
  48         0.00000000
  49        -0.00000000
  50        -0.00000000
  51        -0.00000000
  52        -0.00000000
  53        -0.00000000
  54         0.00000000
  55        -0.00000000
  56         0.31445495
  57        -0.00297133
  58        -0.04473103
  59        -0.03199654
  60        -0.00000000
  61        -0.00000000
  62        -0.00000000
  63         0.00000000
  64         0.00000000
  65         0.00000000
  66         0.00000000
  67         0.00000000
  68         0.00000000
  69         0.00000000
  70        -0.00000000
  71         0.00000000
  72        -0.00000000
  73        -0.00000000
  74         0.00000000
  75        -0.00000000
  76        -0.00000000
  77        -0.00000000
  78        -0.00000000
  79        -0.00000000
  80        -0.00000000
  81         0.00000000
  82         0.00000000
  83         0.00000000
  84         0.00000000
  85         0.00000000
Sym=     3a  
Ene=    -0.7423
Spin= Alpha
Occup=    2.00000
   1        -0.01937331
   2        -0.38398631
   3        -0.00272694
   4         0.00933393
   5        -0.00645388
   6         0.79199762
   7        -0.00000000
   8         0.00000000
   9         0.01410762
  10         0.00000000
  11        -0.00000000
  12        -0.01814454
  13         0.00000000
  14        -0.00000000
  15         0.02912579
  16         0.00000000
  17        -0.00000000
  18        -0.00000000
  19         0.00000000
  20         0.00000000
  21         0.00000000
  22        -0.00000000
  23         0.00000000
  24        -0.00000000
  25        -0.00000000
  26        -0.00000000
  27         0.00000000
  28         0.00000000
  29        -0.00000000
  30         0.00000000
  31        -0.00000000
  32         0.00000000
  33        -0.00000000
  34         0.00000000
  35        -0.00000000
  36         0.00000000
  37         0.00000000
  38        -0.00000000
  39         0.00000000
  40         0.00000000
  41         0.00000000
  42        -0.00000000
  43        -0.00000000
  44        -0.00000000
  45        -0.00000000
  46         0.00000000
  47        -0.00000000
  48         0.00000000
  49        -0.00000000
  50         0.00000000
  51        -0.00000000
  52        -0.00000000
  53         0.00000000
  54        -0.00000000
  55         0.00000000
  56         0.41556612
  57        -0.00392674
  58        -0.05911404
  59        -0.04228484
  60         0.00000000
  61         0.00000000
  62        -0.00000000
  63        -0.00000000
  64        -0.00000000
  65         0.00000000
  66         0.00000000
  67        -0.00000000
  68         0.00000000
  69        -0.00000000
  70         0.00000000
  71        -0.00000000
  72         0.00000000
  73        -0.00000000
  74        -0.00000000
  75        -0.00000000
  76         0.00000000
  77         0.00000000
  78         0.00000000
  79        -0.00000000
  80         0.00000000
  81        -0.00000000
  82         0.00000000
  83         0.00000000
  84        -0.00000000
  85        -0.00000000
Sym=     4a  
Ene=    -0.6358
Spin= Alpha
Occup=    1.50000
   1         0.00000000
   2         0.00000000
   3        -0.00000000
   4        -0.00000000
   5         0.00000000
   6         0.00000000
   7        -0.78909768
   8         0.58283369
   9        -0.00000000
  10        -0.01405597
  11         0.01038185
  12         0.00000000
  13         0.01807811
  14        -0.01335263
  15         0.00000000
  16        -0.02901915
  17         0.02143377
  18         0.00000000
  19        -0.00000000
  20        -0.00000000
  21        -0.00000000
  22         0.00000000
  23        -0.00000000
  24         0.00000000
  25         0.00000000
  26         0.00000000
  27        -0.00000000
  28        -0.00000000
  29         0.00000000
  30         0.00000000
  31         0.00000000
  32        -0.00000000
  33         0.00000000
  34        -0.00000000
  35         0.00000000
  36         0.00000000
  37        -0.00000000
  38         0.00000000
  39        -0.00000000
  40        -0.00000000
  41        -0.00000000
  42         0.00000000
  43         0.00000000
  44         0.00000000
  45         0.00000000
  46        -0.00000000
  47         0.00000000
  48        -0.00000000
  49        -0.00000000
  50        -0.00000000
  51        -0.00000000
  52         0.00000000
  53         0.00000000
  54         0.00000000
  55        -0.00000000
  56         0.00000000
  57        -0.00000000
  58        -0.00000000
  59        -0.00000000
  60        -0.00000000
  61        -0.00000000
  62         0.00000000
  63         0.00000000
  64         0.00000000
  65        -0.00000000
  66         0.00000000
  67         0.00000000
  68        -0.00000000
  69         0.00000000
  70         0.00000000
  71         0.00000000
  72        -0.00000000
  73         0.00000000
  74         0.00000000
  75         0.00000000
  76        -0.00000000
  77        -0.00000000
  78        -0.00000000
  79         0.00000000
  80        -0.00000000
  81         0.00000000
  82        -0.00000000
  83         0.00000000
  84         0.00000000
  85         0.00000000
Sym=     5a  
Ene=    -0.6358
Spin= Alpha
Occup=    1.50000
   1         0.00000000
   2         0.00000000
   3        -0.00000000
   4        -0.00000000
   5        -0.00000000
   6         0.00000000
   7         0.58283369
   8         0.78909768
   9         0.00000000
  10         0.01038185
  11         0.01405597
  12        -0.00000000
  13        -0.01335263
  14        -0.01807811
  15        -0.00000000
  16         0.02143377
  17         0.02901915
  18        -0.00000000
  19        -0.00000000
  20        -0.00000000
  21         0.00000000
  22        -0.00000000
  23         0.00000000
  24         0.00000000
  25         0.00000000
  26        -0.00000000
  27         0.00000000
  28         0.00000000
  29         0.00000000
  30        -0.00000000
  31        -0.00000000
  32         0.00000000
  33         0.00000000
  34         0.00000000
  35         0.00000000
  36        -0.00000000
  37         0.00000000
  38        -0.00000000
  39        -0.00000000
  40        -0.00000000
  41         0.00000000
  42        -0.00000000
  43         0.00000000
  44        -0.00000000
  45        -0.00000000
  46         0.00000000
  47        -0.00000000
  48        -0.00000000
  49         0.00000000
  50         0.00000000
  51        -0.00000000
  52         0.00000000
  53         0.00000000
  54        -0.00000000
  55         0.00000000
  56        -0.00000000
  57         0.00000000
  58         0.00000000
  59         0.00000000
  60         0.00000000
  61         0.00000000
  62        -0.00000000
  63        -0.00000000
  64        -0.00000000
  65        -0.00000000
  66        -0.00000000
  67        -0.00000000
  68        -0.00000000
  69        -0.00000000
  70        -0.00000000
  71        -0.00000000
  72         0.00000000
  73         0.00000000
  74        -0.00000000
  75         0.00000000
  76         0.00000000
  77         0.00000000
  78         0.00000000
  79         0.00000000
  80         0.00000000
  81         0.00000000
  82        -0.00000000
  83        -0.00000000
  84        -0.00000000
  85        -0.00000000
Sym=     6a  
Ene=    -0.2192
Spin= Alpha
Occup=    0.00000
   1        -0.07329447
   2        -0.73704140
   3        -0.00486433
   4         0.01867846
   5        -0.01204844
   6        -0.79006434
   7         0.00000000
   8         0.00000000
   9        -0.01407319
  10        -0.00000000
  11        -0.00000000
  12         0.01810025
  13        -0.00000000
  14        -0.00000000
  15        -0.02905470
  16        -0.00000000
  17        -0.00000000
  18         0.00000000
  19         0.00000000
  20        -0.00000000
  21        -0.00000000
  22        -0.00000000
  23        -0.00000000
  24        -0.00000000
  25        -0.00000000
  26         0.00000000
  27         0.00000000
  28        -0.00000000
  29        -0.00000000
  30        -0.00000000
  31         0.00000000
  32        -0.00000000
  33        -0.00000000
  34         0.00000000
  35        -0.00000000
  36         0.00000000
  37         0.00000000
  38         0.00000000
  39         0.00000000
  40         0.00000000
  41        -0.00000000
  42         0.00000000
  43        -0.00000000
  44         0.00000000
  45         0.00000000
  46        -0.00000000
  47         0.00000000
  48        -0.00000000
  49         0.00000000
  50        -0.00000000
  51         0.00000000
  52        -0.00000000
  53         0.00000000
  54         0.00000000
  55        -0.00000000
  56         1.62090643
  57        -0.01531617
  58        -0.23057298
  59        -0.16493107
  60        -0.00000000
  61        -0.00000000
  62         0.00000000
  63         0.00000000
  64         0.00000000
  65         0.00000000
  66         0.00000000
  67         0.00000000
  68         0.00000000
  69         0.00000000
  70        -0.00000000
  71        -0.00000000
  72        -0.00000000
  73        -0.00000000
  74         0.00000000
  75        -0.00000000
  76        -0.00000000
  77        -0.00000000
  78        -0.00000000
  79        -0.00000000
  80        -0.00000000
  81        -0.00000000
  82         0.00000000
  83         0.00000000
  84         0.00000000
  85         0.00000000
Sym=     7a  
Ene=     3.3826
Spin= Alpha
Occup=    0.00000
   1        -0.01326709
   2        -0.04678753
   3        -0.09681390
   4         0.56864639
   5        -1.64470301
   6        -0.01057390
   7        -0.00000000
   8        -0.00000000
   9         0.04015257
  10         0.00000000
  11         0.00000000
  12         0.14388711
  13        -0.00000000
  14        -0.00000000
  15        -0.36995101
  16         0.00000000
  17         0.00000000
  18         0.00285909
  19         0.00000000
  20         0.00000000
  21        -0.00495210
  22         0.00000000
  23        -0.02191203
  24        -0.00000000
  25        -0.00000000
  26         0.03795274
  27        -0.00000000
  28         0.01909182
  29         0.00000000
  30         0.00000000
  31        -0.03306801
  32        -0.00000000
  33         0.00000000
  34        -0.00263933
  35         0.00000000
  36         0.00000000
  37        -0.00000000
  38         0.00340736
  39         0.00000000
  40        -0.00000000
  41        -0.00624305
  42         0.00000000
  43         0.00000000
  44         0.00000000
  45         0.00805974
  46        -0.00000000
  47         0.00030996
  48         0.00000000
  49        -0.00000000
  50        -0.00046205
  51        -0.00000000
  52         0.00000000
  53         0.00000000
  54         0.00061124
  55        -0.00000000
  56        -0.16962605
  57         0.14383579
  58        -0.91030651
  59         2.38080511
  60        -0.03648935
  61        -0.00000000
  62        -0.00000000
  63         0.20213944
  64         0.00000000
  65         0.00000000
  66        -0.67620984
  67        -0.00000000
  68         0.00000000
  69         0.00657778
  70         0.00000000
  71         0.00000000
  72        -0.01139305
  73        -0.00000000
  74         0.00894741
  75        -0.00000000
  76        -0.00000000
  77        -0.01549737
  78        -0.00000000
  79         0.00000000
  80        -0.01025671
  81        -0.00000000
  82         0.00000000
  83         0.00000000
  84         0.01324135
  85         0.00000000
Sym=     8a  
Ene=     3.6274
Spin= Alpha
Occup=    0.00000
   1         0.03101805
   2         0.11204569
   3         0.24065205
   4        -0.98042539
   5        -7.19716348
   6         0.00747643
   7         0.00000000
   8        -0.00000000
   9         0.10093254
  10        -0.00000000
  11         0.00000000
  12        -1.45229347
  13         0.00000000
  14        -0.00000000
  15        -4.36137466
  16        -0.00000000
  17         0.00000000
  18        -0.00333480
  19         0.00000000
  20         0.00000000
  21         0.00577605
  22        -0.00000000
  23         0.03259153
  24        -0.00000000
  25        -0.00000000
  26        -0.05645019
  27         0.00000000
  28         0.56666131
  29        -0.00000000
  30         0.00000000
  31        -0.98148617
  32        -0.00000000
  33        -0.00000000
  34        -0.00176543
  35         0.00000000
  36        -0.00000000
  37        -0.00000000
  38         0.00227916
  39         0.00000000
  40         0.00000000
  41         0.10542768
  42        -0.00000000
  43        -0.00000000
  44         0.00000000
  45        -0.13610654
  46        -0.00000000
  47        -0.00769158
  48        -0.00000000
  49        -0.00000000
  50         0.01146592
  51         0.00000000
  52        -0.00000000
  53        -0.00000000
  54        -0.01516799
  55         0.00000000
  56        -0.41973691
  57         0.37138187
  58         8.02930438
  59         0.97900307
  60         0.04595966
  61        -0.00000000
  62         0.00000000
  63        -0.64978094
  64         0.00000000
  65        -0.00000000
  66        -3.24324818
  67        -0.00000000
  68         0.00000000
  69        -0.00552617
  70        -0.00000000
  71        -0.00000000
  72         0.00957161
  73         0.00000000
  74        -0.25256538
  75        -0.00000000
  76        -0.00000000
  77         0.43745607
  78        -0.00000000
  79        -0.00000000
  80         0.02763926
  81        -0.00000000
  82         0.00000000
  83         0.00000000
  84        -0.03568213
  85        -0.00000000
Sym=     9a  
Ene=     3.7818
Spin= Alpha
Occup=    0.00000
   1        -0.00000000
   2        -0.00000000
   3         0.00000000
   4         0.00000000
   5         0.00000000
   6        -0.00000000
   7        -0.00195710
   8         0.02168413
   9        -0.00000000
  10         0.00164072
  11        -0.01817877
  12         0.00000000
  13        -0.00343233
  14         0.03802927
  15         0.00000000
  16         0.11143409
  17        -1.23465809
  18        -0.00000000
  19         0.00024548
  20        -0.00000000
  21        -0.00000000
  22        -0.00002216
  23        -0.00000000
  24         0.00032851
  25         0.00000000
  26         0.00000000
  27        -0.00002965
  28        -0.00000000
  29        -0.31934053
  30        -0.00000000
  31         0.00000000
  32         0.02882208
  33        -0.00566613
  34        -0.00000000
  35         0.00020878
  36         0.00731494
  37        -0.00000000
  38         0.00000000
  39        -0.00080859
  40         0.05624723
  41        -0.00000000
  42        -0.00207251
  43        -0.07261486
  44        -0.00000000
  45         0.00000000
  46         0.00802680
  47         0.00000000
  48         0.00521091
  49         0.00000000
  50        -0.00000000
  51        -0.00022171
  52        -0.00459559
  53         0.00000000
  54        -0.00000000
  55         0.00058658
  56         0.00000000
  57         0.00000000
  58        -0.00000000
  59        -0.00000000
  60        -0.00000000
  61        -0.00514546
  62         0.05701021
  63         0.00000000
  64         0.02375840
  65        -0.26323629
  66         0.00000000
  67        -0.15870604
  68         1.75841793
  69        -0.00000000
  70         0.01114197
  71        -0.00000000
  72         0.00000000
  73        -0.00100562
  74         0.00000000
  75        -0.20449119
  76         0.00000000
  77        -0.00000000
  78         0.01845636
  79        -0.02185103
  80        -0.00000000
  81         0.00080513
  82         0.02820956
  83        -0.00000000
  84         0.00000000
  85        -0.00311827
Sym=    10a  
Ene=     3.7818
Spin= Alpha
Occup=    0.00000
   1         0.00000000
   2         0.00000000
   3         0.00000000
   4         0.00000000
   5        -0.00000000
   6         0.00000000
   7         0.02168413
   8         0.00195710
   9        -0.00000000
  10        -0.01817877
  11        -0.00164072
  12        -0.00000000
  13         0.03802927
  14         0.00343233
  15        -0.00000000
  16        -1.23465809
  17        -0.11143409
  18        -0.00000000
  19         0.00002216
  20        -0.00000000
  21         0.00000000
  22         0.00024548
  23         0.00000000
  24         0.00002965
  25         0.00000000
  26        -0.00000000
  27         0.00032851
  28         0.00000000
  29        -0.02882208
  30        -0.00000000
  31        -0.00000000
  32        -0.31934053
  33        -0.00051140
  34        -0.00000000
  35        -0.00231319
  36         0.00066021
  37         0.00000000
  38         0.00000000
  39         0.00895894
  40         0.00507659
  41         0.00000000
  42         0.02296284
  43        -0.00655386
  44         0.00000000
  45        -0.00000000
  46        -0.08893468
  47         0.00000000
  48         0.00047031
  49        -0.00000000
  50         0.00000000
  51         0.00245645
  52        -0.00041477
  53         0.00000000
  54         0.00000000
  55        -0.00649914
  56        -0.00000000
  57         0.00000000
  58         0.00000000
  59         0.00000000
  60         0.00000000
  61         0.05701021
  62         0.00514546
  63        -0.00000000
  64        -0.26323629
  65        -0.02375840
  66        -0.00000000
  67         1.75841793
  68         0.15870604
  69        -0.00000000
  70         0.00100562
  71        -0.00000000
  72         0.00000000
  73         0.01114197
  74        -0.00000000
  75        -0.01845636
  76         0.00000000
  77         0.00000000
  78        -0.20449119
  79        -0.00197217
  80         0.00000000
  81        -0.00892065
  82         0.00254605
  83        -0.00000000
  84        -0.00000000
  85         0.03454952
Sym=    11a  
Ene=     3.9147
Spin= Alpha
Occup=    0.00000
   1        -0.00000000
   2        -0.00000000
   3        -0.00000000
   4         0.00000000
   5         0.00000000
   6        -0.00000000
   7         0.01049932
   8        -0.14365722
   9        -0.00000000
  10        -0.01390516
  11         0.19025767
  12         0.00000000
  13         0.07800473
  14        -1.06730174
  15         0.00000000
  16        -0.09313454
  17         1.27431586
  18         0.00000000
  19         0.00332974
  20         0.00000000
  21         0.00000000
  22        -0.00024336
  23        -0.00000000
  24        -0.01713776
  25        -0.00000000
  26        -0.00000000
  27         0.00125253
  28         0.00000000
  29         0.06576946
  30         0.00000000
  31         0.00000000
  32        -0.00480682
  33         0.00222154
  34         0.00000000
  35        -0.00006628
  36        -0.00286800
  37         0.00000000
  38        -0.00000000
  39         0.00025672
  40        -0.00968106
  41        -0.00000000
  42         0.00028886
  43         0.01249820
  44         0.00000000
  45         0.00000000
  46        -0.00111873
  47         0.00000000
  48         0.00034841
  49         0.00000000
  50        -0.00000000
  51        -0.00001200
  52        -0.00030727
  53        -0.00000000
  54         0.00000000
  55         0.00003176
  56         0.00000000
  57        -0.00000000
  58        -0.00000000
  59        -0.00000000
  60         0.00000000
  61        -0.00215347
  62         0.02946496
  63         0.00000000
  64         0.01030435
  65        -0.14098952
  66         0.00000000
  67        -0.02176038
  68         0.29773699
  69        -0.00000000
  70        -0.01207868
  71         0.00000000
  72         0.00000000
  73         0.00088278
  74         0.00000000
  75         0.03803020
  76        -0.00000000
  77        -0.00000000
  78        -0.00277947
  79        -0.01120188
  80         0.00000000
  81         0.00033423
  82         0.01446156
  83         0.00000000
  84         0.00000000
  85        -0.00129448
Sym=    12a  
Ene=     3.9147
Spin= Alpha
Occup=    0.00000
   1        -0.00000000
   2        -0.00000000
   3        -0.00000000
   4         0.00000000
   5         0.00000000
   6         0.00000000
   7        -0.14365722
   8        -0.01049932
   9        -0.00000000
  10         0.19025767
  11         0.01390516
  12         0.00000000
  13        -1.06730174
  14        -0.07800473
  15         0.00000000
  16         1.27431586
  17         0.09313454
  18         0.00000000
  19         0.00024336
  20         0.00000000
  21        -0.00000000
  22         0.00332974
  23        -0.00000000
  24        -0.00125253
  25        -0.00000000
  26         0.00000000
  27        -0.01713776
  28        -0.00000000
  29         0.00480682
  30         0.00000000
  31         0.00000000
  32         0.06576946
  33         0.00016236
  34         0.00000000
  35         0.00090694
  36        -0.00020961
  37        -0.00000000
  38         0.00000000
  39        -0.00351256
  40        -0.00070755
  41        -0.00000000
  42        -0.00395228
  43         0.00091344
  44         0.00000000
  45         0.00000000
  46         0.01530711
  47         0.00000000
  48         0.00002546
  49        -0.00000000
  50        -0.00000000
  51         0.00016424
  52        -0.00002246
  53         0.00000000
  54         0.00000000
  55        -0.00043454
  56         0.00000000
  57        -0.00000000
  58        -0.00000000
  59        -0.00000000
  60        -0.00000000
  61         0.02946496
  62         0.00215347
  63         0.00000000
  64        -0.14098952
  65        -0.01030435
  66         0.00000000
  67         0.29773699
  68         0.02176038
  69         0.00000000
  70        -0.00088278
  71         0.00000000
  72        -0.00000000
  73        -0.01207868
  74         0.00000000
  75         0.00277947
  76        -0.00000000
  77        -0.00000000
  78         0.03803020
  79        -0.00081870
  80        -0.00000000
  81        -0.00457315
  82         0.00105694
  83         0.00000000
  84         0.00000000
  85         0.01771172
Sym=    13a  
Ene=     4.0802
Spin= Alpha
Occup=    0.00000
   1         0.04885227
   2         0.23663885
   3        -0.62162786
   4         2.24368170
   5        -3.69493014
   6        -0.06924891
   7        -0.00000000
   8         0.00000000
   9         0.18533930
  10         0.00000000
  11        -0.00000000
  12        -0.72573705
  13        -0.00000000
  14         0.00000000
  15        -0.92872757
  16         0.00000000
  17        -0.00000000
  18        -0.00590650
  19        -0.00000000
  20         0.00000000
  21         0.01023036
  22         0.00000000
  23         0.02048764
  24        -0.00000000
  25        -0.00000000
  26        -0.03548564
  27         0.00000000
  28         0.28872738
  29         0.00000000
  30         0.00000000
  31        -0.50009049
  32        -0.00000000
  33         0.00000000
  34        -0.01046085
  35        -0.00000000
  36        -0.00000000
  37        -0.00000000
  38         0.01350490
  39        -0.00000000
  40        -0.00000000
  41         0.11610595
  42        -0.00000000
  43         0.00000000
  44         0.00000000
  45        -0.14989213
  46        -0.00000000
  47        -0.00769510
  48        -0.00000000
  49         0.00000000
  50         0.01147118
  51         0.00000000
  52         0.00000000
  53        -0.00000000
  54        -0.01517495
  55        -0.00000000
  56        -0.28627861
  57         0.45596797
  58         1.91853003
  59         0.61228886
  60         0.05160152
  61         0.00000000
  62         0.00000000
  63        -0.63908874
  64         0.00000000
  65        -0.00000000
  66         0.38257424
  67         0.00000000
  68        -0.00000000
  69        -0.01733411
  70         0.00000000
  71         0.00000000
  72         0.03002356
  73        -0.00000000
  74         0.00312621
  75         0.00000000
  76        -0.00000000
  77        -0.00541476
  78        -0.00000000
  79         0.00000000
  80        -0.01780920
  81        -0.00000000
  82        -0.00000000
  83         0.00000000
  84         0.02299158
  85         0.00000000
Sym=    14a  
Ene=     4.2766
Spin= Alpha
Occup=    0.00000
   1         0.01008421
   2         0.05105726
   3        -0.00467682