[Molden Format]
[N_Atoms]
                    2
[Atoms] (AU)
O1          1      8           0.00000000      0.00000000      0.00000000
H2          2      1           1.88972612      0.00000000      0.00000000
[5D]
[7F]
[9G]
[Charge] (Mulliken)
 -0.28547261988592432     
  0.28547261988538697     
[GTO] (AU)
   1
   s  12
  6.142000000E+04  9.000006336E-05
  9.199000000E+03  6.980004914E-04
  2.091000000E+03  3.664002579E-03
  5.909000000E+02  1.521801071E-02
  1.923000000E+02  5.242303690E-02
  6.932000000E+01  1.459211027E-01
  2.697000000E+01  3.052582149E-01
  1.110000000E+01  3.985082805E-01
  4.682000000E+00  2.169801527E-01
  1.428000000E+00  1.759401239E-02
  5.547000000E-01 -2.502001761E-03
  2.067000000E-01  9.540006716E-04
   s  12
  6.142000000E+04 -2.000000177E-05
  9.199000000E+03 -1.590000141E-04
  2.091000000E+03 -8.290000736E-04
  5.909000000E+02 -3.508000311E-03
  1.923000000E+02 -1.215600108E-02
  6.932000000E+01 -3.626100322E-02
  2.697000000E+01 -8.299200736E-02
  1.110000000E+01 -1.520900135E-01
  4.682000000E+00 -1.153310102E-01
  1.428000000E+00  2.889790256E-01
  5.547000000E-01  5.861280520E-01
  2.067000000E-01  2.776240246E-01
   s   1
  1.428000000E+00  1.000000000E+00
   s   1
  5.547000000E-01  1.000000000E+00
   s   1
  2.067000000E-01  1.000000000E+00
   p   6
  6.342000000E+01  6.043996276E-03
  1.466000000E+01  4.179897424E-02
  4.459000000E+00  1.611429007E-01
  1.531000000E+00  3.567307802E-01
  5.302000000E-01  4.483087238E-01
  1.750000000E-01  2.449398491E-01
   p   1
  1.531000000E+00  1.000000000E+00
   p   1
  5.302000000E-01  1.000000000E+00
   p   1
  1.750000000E-01  1.000000000E+00
   d   1
  3.775000000E+00  1.000000000E+00
   d   1
  1.300000000E+00  1.000000000E+00
   d   1
  4.440000000E-01  1.000000000E+00
   f   1
  2.666000000E+00  1.000000000E+00
   f   1
  8.590000000E-01  1.000000000E+00
   g   1
  1.846000000E+00  1.000000000E+00
 
   2
   s   6
  8.264000000E+01  2.006000801E-03
  1.241000000E+01  1.534300612E-02
  2.824000000E+00  7.557903017E-02
  7.977000000E-01  2.568751025E-01
  2.581000000E-01  4.973681985E-01
  8.989000000E-02  2.961331182E-01
   s   1
  7.977000000E-01  1.000000000E+00
   s   1
  2.581000000E-01  1.000000000E+00
   s   1
  8.989000000E-02  1.000000000E+00
   p   1
  2.292000000E+00  1.000000000E+00
   p   1
  8.380000000E-01  1.000000000E+00
   p   1
  2.920000000E-01  1.000000000E+00
   d   1
  2.062000000E+00  1.000000000E+00
   d   1
  6.620000000E-01  1.000000000E+00
   f   1
  1.397000000E+00  1.000000000E+00
 
[MO]
Sym=     1a  
Ene=   -20.6370
Spin= Alpha
Occup=    1.00000
   1         0.99902581
   2        -0.00036824
   3         0.00213339
   4        -0.00090759
   5         0.00030340
   6         0.00696375
   7        -0.00000000
   8         0.00000000
   9        -0.00264471
  10         0.00000000
  11        -0.00000000
  12        -0.00370267
  13         0.00000000
  14         0.00000000
  15        -0.00173358
  16        -0.00000000
  17        -0.00000000
  18         0.00014970
  19        -0.00000000
  20        -0.00070028
  21        -0.00026716
  22         0.00000000
  23         0.00008627
  24         0.00000000
  25         0.00018134
  26        -0.00014738
  27         0.00000000
  28         0.00017418
  29         0.00000000
  30        -0.00008373
  31        -0.00030263
  32        -0.00000000
  33        -0.00000000
  34        -0.00003137
  35        -0.00000000
  36         0.00000000
  37        -0.00000422
  38         0.00004047
  39         0.00000000
  40        -0.00000000
  41         0.00008362
  42         0.00000000
  43         0.00000000
  44         0.00000584
  45        -0.00010789
  46        -0.00000000
  47        -0.00000113
  48        -0.00000000
  49        -0.00000155
  50         0.00000085
  51         0.00000000
  52         0.00000000
  53         0.00000411
  54        -0.00000156
  55         0.00000000
  56        -0.00004291
  57         0.00071914
  58         0.00057392
  59        -0.00029167
  60         0.00004040
  61        -0.00000000
  62         0.00000000
  63        -0.00055996
  64         0.00000000
  65        -0.00000000
  66        -0.00013270
  67        -0.00000000
  68        -0.00000000
  69        -0.00000308
  70         0.00000000
  71        -0.00000433
  72         0.00000529
  73        -0.00000000
  74        -0.00005798
  75         0.00000000
  76         0.00000463
  77         0.00010047
  78         0.00000000
  79         0.00000000
  80        -0.00002055
  81         0.00000000
  82        -0.00000000
  83         0.00001230
  84         0.00002665
  85        -0.00000000
Sym=     1a  
Ene=   -20.5970
Spin= Beta
Occup=    1.00000
   1         1.00148243
   2         0.00265077
   3        -0.00175842
   4        -0.00217687
   5        -0.00060830
   6         0.00724774
   7        -0.00000000
   8        -0.00000000
   9        -0.00304099
  10         0.00000000
  11        -0.00000000
  12        -0.00354787
  13         0.00000000
  14         0.00000000
  15        -0.00169193
  16        -0.00000000
  17        -0.00000000
  18        -0.00019725
  19        -0.00000000
  20         0.00055742
  21         0.00034791
  22         0.00000000
  23         0.00005846
  24        -0.00000000
  25         0.00042746
  26        -0.00009645
  27        -0.00000000
  28         0.00002074
  29        -0.00000000
  30         0.00009784
  31        -0.00003482
  32        -0.00000000
  33        -0.00000000
  34        -0.00001528
  35        -0.00000000
  36         0.00000000
  37         0.00000801
  38         0.00001980
  39         0.00000000
  40        -0.00000000
  41         0.00003706
  42         0.00000000
  43        -0.00000000
  44         0.00000815
  45        -0.00004777
  46        -0.00000000
  47        -0.00000137
  48        -0.00000000
  49        -0.00000157
  50         0.00000122
  51        -0.00000000
  52         0.00000000
  53         0.00000417
  54        -0.00000204
  55         0.00000000
  56        -0.00027849
  57         0.00060631
  58         0.00040403
  59        -0.00016090
  60         0.00006677
  61        -0.00000000
  62         0.00000000
  63        -0.00055292
  64        -0.00000000
  65        -0.00000000
  66        -0.00005545
  67         0.00000000
  68        -0.00000000
  69        -0.00002358
  70        -0.00000000
  71         0.00000016
  72         0.00004084
  73        -0.00000000
  74        -0.00010083
  75         0.00000000
  76         0.00000447
  77         0.00017469
  78        -0.00000000
  79         0.00000000
  80         0.00004327
  81         0.00000000
  82         0.00000000
  83        -0.00000048
  84        -0.00005587
  85         0.00000000
Sym=     2a  
Ene=    -1.3782
Spin= Alpha
Occup=    1.00000
   1        -0.00159647
   2         0.95229909
   3        -0.00304980
   4        -0.00399565
   5        -0.03114075
   6         0.09411635
   7        -0.00000000
   8         0.00000000
   9         0.00344886
  10         0.00000000
  11        -0.00000000
  12         0.00777190
  13        -0.00000000
  14         0.00000000
  15        -0.01410777
  16        -0.00000000
  17        -0.00000000
  18         0.00014745
  19        -0.00000000
  20        -0.00187965
  21        -0.00027654
  22         0.00000000
  23        -0.00050433
  24         0.00000000
  25        -0.01048497
  26         0.00075555
  27        -0.00000000
  28        -0.00120408
  29        -0.00000000
  30        -0.00869005
  31         0.00198775
  32        -0.00000000
  33        -0.00000000
  34        -0.00033847
  35        -0.00000000
  36         0.00000000
  37        -0.00030313
  38         0.00043418
  39         0.00000000
  40         0.00000000
  41        -0.00109651
  42         0.00000000
  43         0.00000000
  44        -0.00087509
  45         0.00140754
  46        -0.00000000
  47         0.00004973
  48        -0.00000000
  49         0.00002596
  50        -0.00020560
  51         0.00000000
  52        -0.00000000
  53        -0.00006631
  54         0.00019684
  55        -0.00000000
  56         0.37299990
  57        -0.01781053
  58        -0.14113241
  59        -0.10897441
  60        -0.00630621
  61        -0.00000000
  62         0.00000000
  63        -0.01136114
  64         0.00000000
  65        -0.00000000
  66        -0.00571348
  67         0.00000000
  68        -0.00000000
  69        -0.00120337
  70         0.00000000
  71        -0.00006575
  72         0.00208356
  73        -0.00000000
  74        -0.00063415
  75        -0.00000000
  76        -0.00039726
  77         0.00109391
  78        -0.00000000
  79         0.00000000
  80         0.00048630
  81         0.00000000
  82        -0.00000000
  83         0.00016226
  84        -0.00062631
  85         0.00000000
Sym=     2a  
Ene=    -1.2181
Spin= Beta
Occup=    1.00000
   1        -0.00252876
   2         0.90000165
   3        -0.00532968
   4        -0.01792817
   5        -0.01273601
   6         0.10964744
   7        -0.00000000
   8        -0.00000000
   9         0.00304365
  10         0.00000000
  11         0.00000000
  12        -0.00107126
  13        -0.00000000
  14        -0.00000000
  15        -0.02421358
  16         0.00000000
  17         0.00000000
  18        -0.00139837
  19         0.00000000
  20         0.00323264
  21         0.00245842
  22         0.00000000
  23        -0.00612244
  24        -0.00000000
  25         0.00905961
  26         0.01070632
  27        -0.00000000
  28        -0.00607192
  29        -0.00000000
  30         0.01590858
  31         0.01069589
  32        -0.00000000
  33         0.00000000
  34        -0.00065681
  35        -0.00000000
  36        -0.00000000
  37         0.00011427
  38         0.00084899
  39        -0.00000000
  40         0.00000000
  41        -0.00127884
  42         0.00000000
  43        -0.00000000
  44         0.00070009
  45         0.00165741
  46        -0.00000000
  47         0.00013012
  48         0.00000000
  49        -0.00002254
  50        -0.00016246
  51        -0.00000000
  52        -0.00000000
  53         0.00005906
  54         0.00023332
  55        -0.00000000
  56         0.45277843
  57        -0.01360184
  58        -0.14167859
  59        -0.12758640
  60        -0.00677891
  61        -0.00000000
  62        -0.00000000
  63        -0.01618814
  64         0.00000000
  65         0.00000000
  66        -0.01186809
  67         0.00000000
  68         0.00000000
  69        -0.00134924
  70         0.00000000
  71        -0.00007657
  72         0.00233609
  73         0.00000000
  74        -0.00144151
  75        -0.00000000
  76         0.00066901
  77         0.00250430
  78        -0.00000000
  79        -0.00000000
  80         0.00050719
  81        -0.00000000
  82         0.00000000
  83        -0.00003911
  84        -0.00065514
  85         0.00000000
Sym=     3a  
Ene=    -0.6716
Spin= Alpha
Occup=    1.00000
   1        -0.00276223
   2        -0.26559187
   3        -0.00516179
   4        -0.01225454
   5        -0.11766928
   6         0.79447597
   7         0.00000000
   8        -0.00000000
   9         0.00076126
  10        -0.00000000
  11         0.00000000
  12        -0.01512158
  13         0.00000000
  14         0.00000000
  15        -0.03662565
  16        -0.00000000
  17         0.00000000
  18        -0.00211283
  19         0.00000000
  20         0.00066489
  21         0.00366701
  22         0.00000000
  23        -0.00813336
  24        -0.00000000
  25         0.00320523
  26         0.01412346
  27         0.00000000
  28        -0.01129386
  29         0.00000000
  30         0.00442968
  31         0.01961139
  32        -0.00000000
  33         0.00000000
  34        -0.00033753
  35        -0.00000000
  36         0.00000000
  37        -0.00173536
  38         0.00041981
  39        -0.00000000
  40        -0.00000000
  41        -0.00046476
  42         0.00000000
  43        -0.00000000
  44        -0.00488452
  45         0.00055513
  46        -0.00000000
  47         0.00013762
  48         0.00000000
  49         0.00008929
  50        -0.00015369
  51        -0.00000000
  52        -0.00000000
  53        -0.00023715
  54         0.00023033
  55        -0.00000000
  56         0.66085326
  57        -0.01784496
  58        -0.11357920
  59        -0.17059605
  60        -0.00641041
  61        -0.00000000
  62         0.00000000
  63        -0.01662267
  64         0.00000000
  65        -0.00000000
  66        -0.01909541
  67         0.00000000
  68        -0.00000000
  69        -0.00134999
  70         0.00000000
  71         0.00013627
  72         0.00233978
  73        -0.00000000
  74        -0.00210773
  75         0.00000000
  76        -0.00195188
  77         0.00362874
  78        -0.00000000
  79        -0.00000000
  80         0.00052763
  81        -0.00000000
  82         0.00000000
  83         0.00025233
  84        -0.00067885
  85        -0.00000000
Sym=     3a  
Ene=    -0.6286
Spin= Beta
Occup=    1.00000
   1        -0.00273567
   2        -0.31031837
   3        -0.00507748
   4        -0.00004135
   5        -0.12665011
   6         0.75493217
   7         0.00000000
   8         0.00000000
   9        -0.00206004
  10         0.00000000
  11         0.00000000
  12        -0.00961788
  13        -0.00000000
  14        -0.00000000
  15        -0.00798540
  16        -0.00000000
  17        -0.00000000
  18        -0.00152144
  19        -0.00000000
  20        -0.00113431
  21         0.00262245
  22        -0.00000000
  23        -0.00606561
  24        -0.00000000
  25        -0.00290840
  26         0.01047321
  27        -0.00000000
  28        -0.00882750
  29        -0.00000000
  30        -0.00627055
  31         0.01521912
  32        -0.00000000
  33         0.00000000
  34        -0.00126569
  35         0.00000000
  36        -0.00000000
  37         0.00024783
  38         0.00163628
  39        -0.00000000
  40        -0.00000000
  41        -0.00278766
  42        -0.00000000
  43         0.00000000
  44         0.00081092
  45         0.00360630
  46         0.00000000
  47         0.00018528
  48         0.00000000
  49         0.00001051
  50        -0.00028970
  51        -0.00000000
  52         0.00000000
  53        -0.00002757
  54         0.00037533
  55        -0.00000000
  56         0.67317518
  57        -0.01139730
  58        -0.12471802
  59        -0.17057128
  60        -0.00601077
  61        -0.00000000
  62        -0.00000000
  63        -0.01383131
  64        -0.00000000
  65        -0.00000000
  66        -0.00382898
  67         0.00000000
  68         0.00000000
  69        -0.00135039
  70         0.00000000
  71        -0.00002334
  72         0.00233868
  73         0.00000000
  74        -0.00051869
  75        -0.00000000
  76        -0.00022876
  77         0.00089582
  78        -0.00000000
  79        -0.00000000
  80         0.00034867
  81        -0.00000000
  82         0.00000000
  83         0.00003728
  84        -0.00044979
  85         0.00000000
Sym=     4a  
Ene=    -0.6550
Spin= Alpha
Occup=    1.00000
   1         0.00000000
   2        -0.00000000
   3        -0.00000000
   4        -0.00000000
   5         0.00000000
   6         0.00000000
   7        -0.69970840
   8         0.69578287
   9         0.00000000
  10        -0.00214430
  11         0.00213227
  12         0.00000000
  13        -0.00316428
  14         0.00314653
  15         0.00000000
  16         0.00802419
  17        -0.00797917
  18        -0.00000000
  19         0.00126128
  20         0.00000000
  21        -0.00000000
  22        -0.00126839
  23         0.00000000
  24         0.00514838
  25         0.00000000
  26         0.00000000
  27        -0.00517743
  28        -0.00000000
  29         0.01090714
  30        -0.00000000
  31         0.00000000
  32        -0.01096867
  33        -0.00101623
  34         0.00000000
  35        -0.00189312
  36        -0.00164335
  37        -0.00000000
  38        -0.00000000
  39         0.00021421
  40        -0.00358790
  41         0.00000000
  42        -0.00529445
  43        -0.00402474
  44        -0.00000000
  45         0.00000000
  46        -0.00034428
  47        -0.00000000
  48        -0.00021866
  49         0.00000000
  50         0.00000000
  51        -0.00006053
  52         0.00001534
  53         0.00000000
  54         0.00000000
  55        -0.00021010
  56         0.00000000
  57        -0.00000000
  58        -0.00000000
  59        -0.00000000
  60        -0.00000000
  61        -0.00264802
  62         0.00263317
  63         0.00000000
  64        -0.00660647
  65         0.00656941
  66        -0.00000000
  67        -0.01365783
  68         0.01358120
  69         0.00000000
  70        -0.00130324
  71        -0.00000000
  72         0.00000000
  73         0.00131059
  74        -0.00000000
  75        -0.00278813
  76        -0.00000000
  77        -0.00000000
  78         0.00280386
  79        -0.00059198
  80         0.00000000
  81         0.00010219
  82         0.00058407
  83         0.00000000
  84         0.00000000
  85        -0.00082971
Sym=     4a  
Ene=    -0.5109
Spin= Beta
Occup=    1.00000
   1         0.00000000
   2         0.00000000
   3         0.00000000
   4        -0.00000000
   5        -0.00000000
   6        -0.00000000
   7         0.66279664
   8         0.66653606
   9         0.00000000
  10        -0.00298620
  11        -0.00300305
  12        -0.00000000
  13        -0.00298436
  14        -0.00300120
  15        -0.00000000
  16         0.04658214
  17         0.04684496
  18         0.00000000
  19         0.00114214
  20         0.00000000
  21        -0.00000000
  22         0.00113573
  23        -0.00000000
  24         0.00428182
  25        -0.00000000
  26         0.00000000
  27         0.00425780
  28         0.00000000
  29         0.00861357
  30         0.00000000
  31         0.00000000
  32         0.00856525
  33        -0.00067009
  34         0.00000000
  35         0.00003273
  36         0.00048392
  37         0.00000000
  38        -0.00000000
  39         0.00082278
  40        -0.00210005
  41        -0.00000000
  42         0.00017650
  43         0.00142414
  44        -0.00000000
  45         0.00000000
  46         0.00252259
  47        -0.00000000
  48        -0.00016437
  49        -0.00000000
  50        -0.00000000
  51        -0.00007442
  52         0.00014218
  53         0.00000000
  54        -0.00000000
  55         0.00020289
  56        -0.00000000
  57         0.00000000
  58         0.00000000
  59         0.00000000
  60         0.00000000
  61         0.00293553
  62         0.00295209
  63         0.00000000
  64         0.00814080
  65         0.00818673
  66        -0.00000000
  67         0.02194782
  68         0.02207165
  69         0.00000000
  70        -0.00130449
  71         0.00000000
  72         0.00000000
  73        -0.00129717
  74        -0.00000000
  75        -0.00407255
  76        -0.00000000
  77         0.00000000
  78        -0.00404970
  79        -0.00062484
  80         0.00000000
  81        -0.00024037
  82         0.00079005
  83         0.00000000
  84        -0.00000000
  85         0.00097235
Sym=     5a  
Ene=    -0.5581
Spin= Alpha
Occup=    1.00000
   1        -0.00000000
   2        -0.00000000
   3        -0.00000000
   4         0.00000000
   5         0.00000000
   6         0.00000000
   7         0.68038039
   8         0.68421901
   9        -0.00000000
  10        -0.00092931
  11        -0.00093455
  12         0.00000000
  13        -0.00275744
  14        -0.00277300
  15        -0.00000000
  16         0.02212590
  17         0.02225073
  18         0.00000000
  19         0.00128210
  20        -0.00000000
  21        -0.00000000
  22         0.00127491
  23        -0.00000000
  24         0.00500709
  25         0.00000000
  26         0.00000000
  27         0.00497900
  28         0.00000000
  29         0.01011786
  30         0.00000000
  31         0.00000000
  32         0.01006109
  33         0.00117261
  34         0.00000000
  35        -0.00176573
  36         0.00128993
  37        -0.00000000
  38         0.00000000
  39        -0.00014606
  40         0.00349785
  41        -0.00000000
  42        -0.00560493
  43         0.00427033
  44        -0.00000000
  45        -0.00000000
  46        -0.00017986
  47         0.00000000
  48        -0.00006438
  49         0.00000000
  50        -0.00000000
  51        -0.00019897
  52         0.00023520
  53         0.00000000
  54        -0.00000000
  55         0.00014151
  56         0.00000000
  57        -0.00000000
  58         0.00000000
  59        -0.00000000
  60         0.00000000
  61         0.00280533
  62         0.00282115
  63        -0.00000000
  64         0.00729272
  65         0.00733386
  66        -0.00000000
  67         0.01841655
  68         0.01852046
  69        -0.00000000
  70        -0.00129822
  71        -0.00000000
  72        -0.00000000
  73        -0.00129094
  74         0.00000000
  75        -0.00354242
  76        -0.00000000
  77         0.00000000
  78        -0.00352255
  79        -0.00047695
  80        -0.00000000
  81        -0.00035468
  82         0.00081718
  83        -0.00000000
  84        -0.00000000
  85         0.00087186
Sym=     5a  
Ene=     0.1008
Spin= Beta
Occup=    0.00000
   1         0.00000000
   2         0.00000000
   3         0.00000000
   4        -0.00000000
   5         0.00000000
   6         0.00000000
   7        -0.46447211
   8         0.46186632
   9        -0.00000000
  10        -0.01373689
  11         0.01365982
  12         0.00000000
  13         0.03961264
  14        -0.03939041
  15         0.00000000
  16        -0.30827344
  17         0.30654396
  18         0.00000000
  19         0.00118425
  20        -0.00000000
  21         0.00000000
  22        -0.00119093
  23         0.00000000
  24         0.00148632
  25        -0.00000000
  26        -0.00000000
  27        -0.00149470
  28        -0.00000000
  29         0.01364391
  30         0.00000000
  31         0.00000000
  32        -0.01372088
  33         0.00000688
  34         0.00000000
  35         0.00036484
  36         0.00046142
  37         0.00000000
  38        -0.00000000
  39        -0.00028030
  40        -0.00205081
  41        -0.00000000
  42         0.00156230
  43         0.00356900
  44        -0.00000000
  45         0.00000000
  46        -0.00383150
  47         0.00000000
  48        -0.00012803
  49        -0.00000000
  50        -0.00000000
  51         0.00006405
  52         0.00011654
  53        -0.00000000
  54         0.00000000
  55        -0.00016190
  56         0.00000000
  57        -0.00000000
  58        -0.00000000
  59        -0.00000000
  60         0.00000000
  61        -0.00515596
  62         0.00512704
  63        -0.00000000
  64        -0.00131252
  65         0.00130515
  66         0.00000000
  67        -0.04042632
  68         0.04019952
  69        -0.00000000
  70        -0.00189997
  71        -0.00000000
  72         0.00000000
  73         0.00191069
  74         0.00000000
  75        -0.00023721
  76         0.00000000
  77        -0.00000000
  78         0.00023855
  79        -0.00113840
  80         0.00000000
  81         0.00045007
  82         0.00144753
  83         0.00000000
  84        -0.00000000
  85        -0.00179641
Sym=     6a  
Ene=     0.1152
Spin= Alpha
Occup=    0.00000
   1        -0.01298253
   2        -0.25448293
   3        -0.03449003
   4         0.20867969
   5        -1.32471625
   6        -0.26230297
   7        -0.00000000
   8        -0.00000000
   9         0.02222975
  10         0.00000000
  11         0.00000000
  12        -0.09252781
  13        -0.00000000
  14        -0.00000000
  15        -0.53186844
  16         0.00000000
  17        -0.00000000
  18         0.00045104
  19        -0.00000000
  20         0.00027602
  21        -0.00077812
  22        -0.00000000
  23        -0.00530322
  24         0.00000000
  25         0.00327164
  26         0.00922226
  27         0.00000000
  28         0.04441914
  29         0.00000000
  30        -0.00143899
  31        -0.07695240
  32         0.00000000
  33         0.00000000
  34        -0.00176166
  35         0.00000000
  36         0.00000000
  37         0.00057352
  38         0.00227956
  39        -0.00000000
  40        -0.00000000
  41         0.00903351
  42        -0.00000000
  43        -0.00000000
  44         0.00140659
  45        -0.01164929
  46         0.00000000
  47        -0.00069901
  48         0.00000000
  49        -0.00000275
  50         0.00106583
  51        -0.00000000
  52         0.00000000
  53         0.00000686
  54        -0.00139640
  55         0.00000000
  56         0.03045458
  57         0.10747375
  58         0.34005717
  59         1.68458721
  60        -0.00276155
  61         0.00000000
  62         0.00000000
  63         0.01895242
  64        -0.00000000
  65        -0.00000000
  66        -0.27696227
  67        -0.00000000
  68         0.00000000
  69         0.00145859
  70        -0.00000000
  71         0.00018700
  72        -0.00252425
  73        -0.00000000
  74        -0.00605081
  75         0.00000000
  76        -0.00101495
  77         0.01046888
  78         0.00000000
  79        -0.00000000
  80        -0.00355640
  81         0.00000000
  82         0.00000000
  83        -0.00006771
  84         0.00459067
  85        -0.00000000
Sym=     6a  
Ene=     0.1221
Spin= Beta
Occup=    0.00000
   1        -0.01279337
   2        -0.25554525
   3        -0.03418288
   4         0.22831981
   5        -1.39175518
   6        -0.26102879
   7        -0.00000000
   8         0.00000000
   9         0.02461738
  10        -0.00000000
  11        -0.00000000
  12        -0.09691082
  13         0.00000000
  14        -0.00000000
  15        -0.55830794
  16        -0.00000000
  17         0.00000000
  18         0.00076570
  19         0.00000000
  20        -0.00061062
  21        -0.00133310
  22        -0.00000000
  23        -0.00425275
  24         0.00000000
  25        -0.00064722
  26         0.00735870
  27         0.00000000
  28         0.04737845
  29        -0.00000000
  30        -0.00195675
  31        -0.08208390
  32        -0.00000000
  33        -0.00000000
  34        -0.00151118
  35         0.00000000
  36         0.00000000
  37        -0.00006062
  38         0.00195037
  39         0.00000000
  40         0.00000000
  41         0.01027901
  42         0.00000000
  43        -0.00000000
  44        -0.00007049
  45        -0.01327079
  46         0.00000000
  47        -0.00075841
  48        -0.00000000
  49        -0.00000245
  50         0.00112590
  51         0.00000000
  52        -0.00000000
  53         0.00000656
  54        -0.00149201
  55         0.00000000
  56        -0.01380794
  57         0.11299655
  58         0.36130207
  59         1.73291955
  60        -0.00278438
  61         0.00000000
  62         0.00000000
  63         0.01932032
  64        -0.00000000
  65         0.00000000
  66        -0.28912774
  67         0.00000000
  68         0.00000000
  69         0.00151014
  70        -0.00000000
  71         0.00013876
  72        -0.00261407
  73        -0.00000000
  74        -0.00645464
  75        -0.00000000
  76        -0.00072471
  77         0.01117161
  78         0.00000000
  79        -0.00000000
  80        -0.00368246
  81         0.00000000
  82        -0.00000000
  83        -0.00003724
  84         0.00475370
  85        -0.00000000
Sym=     7a  
Ene=     0.4469
Spin= Alpha
Occup=    0.00000
   1         0.01243242
   2        -0.10401630
   3         0.10328229
   4        -0.45842173
   5        -1.20418199
   6        -0.33780730
   7        -0.00000000
   8         0.00000000
   9         0.01344484
  10         0.00000000
  11         0.00000000
  12        -0.54196142
  13        -0.00000000
  14        -0.00000000
  15        -1.19696302
  16        -0.00000000
  17        -0.00000000
  18        -0.00590109
  19         0.00000000
  20         0.00082440
  21         0.01023026
  22        -0.00000000
  23         0.01663421
  24        -0.00000000
  25         0.00148210
  26        -0.02879461
  27         0.00000000
  28         0.13776947
  29         0.00000000
  30         0.01123081
  31        -0.23849736
  32         0.00000000
  33         0.00000000
  34        -0.00048666
  35        -0.00000000
  36         0.00000000
  37         0.00055838
  38         0.00063340
  39        -0.00000000
  40         0.00000000
  41         0.04168745
  42         0.00000000
  43        -0.00000000
  44         0.00327925
  45        -0.05378814
  46         0.00000000
  47        -0.00293597
  48         0.00000000
  49         0.00011976
  50         0.00445235
  51        -0.00000000
  52        -0.00000000
  53        -0.00031820
  54        -0.00584990
  55         0.00000000
  56         0.66723838
  57         0.01455130
  58         2.95453749
  59        -1.28617668
  60         0.05285817
  61         0.00000000
  62         0.00000000
  63        -0.37614378
  64        -0.00000000
  65         0.00000000
  66        -0.11837951
  67         0.00000000
  68         0.00000000
  69        -0.00841488
  70        -0.00000000
  71        -0.00012557
  72         0.01457359
  73        -0.00000000
  74        -0.07013296
  75        -0.00000000
  76        -0.00213980
  77         0.12144977
  78         0.00000000
  79        -0.00000000
  80         0.01275081
  81         0.00000000
  82         0.00000000
  83         0.00061807
  84        -0.01645554
  85        -0.00000000
Sym=     7a  
Ene=     0.4530
Spin= Beta
Occup=    0.00000
   1         0.01471463
   2        -0.12141608
   3         0.11551342
   4        -0.50288795