[Molden Format]
[N_Atoms]
                    2
[Atoms] (AU)
H1          1      1     ****************      0.00000000      0.00000000
H1          2      1     ****************      0.00000000      0.00000000
[5D]
[7F]
[Charge] (Mulliken)
   0.0000000000000000     
   0.0000000000000000     
[GTO] (AU)
   1
   s   6
  8.264000000E+01  2.006000801E-03
  1.241000000E+01  1.534300612E-02
  2.824000000E+00  7.557903017E-02
  7.977000000E-01  2.568751025E-01
  2.581000000E-01  4.973681985E-01
  8.989000000E-02  2.961331182E-01
   s   1
  7.977000000E-01  1.000000000E+00
   s   1
  2.581000000E-01  1.000000000E+00
   s   1
  8.989000000E-02  1.000000000E+00
   s   1
  2.363000000E-02  1.000000000E+00
   p   1
  2.292000000E+00  1.000000000E+00
   p   1
  8.380000000E-01  1.000000000E+00
   p   1
  2.920000000E-01  1.000000000E+00
   p   1
  8.480000000E-02  1.000000000E+00
   d   1
  2.062000000E+00  1.000000000E+00
   d   1
  6.620000000E-01  1.000000000E+00
   d   1
  1.900000000E-01  1.000000000E+00
   f   1
  1.397000000E+00  1.000000000E+00
   f   1
  3.600000000E-01  1.000000000E+00
 
   2
   s   6
  8.264000000E+01  2.006000801E-03
  1.241000000E+01  1.534300612E-02
  2.824000000E+00  7.557903017E-02
  7.977000000E-01  2.568751025E-01
  2.581000000E-01  4.973681985E-01
  8.989000000E-02  2.961331182E-01
   s   1
  7.977000000E-01  1.000000000E+00
   s   1
  2.581000000E-01  1.000000000E+00
   s   1
  8.989000000E-02  1.000000000E+00
   s   1
  2.363000000E-02  1.000000000E+00
   p   1
  2.292000000E+00  1.000000000E+00
   p   1
  8.380000000E-01  1.000000000E+00
   p   1
  2.920000000E-01  1.000000000E+00
   p   1
  8.480000000E-02  1.000000000E+00
   d   1
  2.062000000E+00  1.000000000E+00
   d   1
  6.620000000E-01  1.000000000E+00
   d   1
  1.900000000E-01  1.000000000E+00
   f   1
  1.397000000E+00  1.000000000E+00
   f   1
  3.600000000E-01  1.000000000E+00
 
[MO]
Sym=     1ag 
Ene=    -0.5000
Spin= Alpha
Occup=    1.00000
   1         0.93790459
   2        -0.02013773
   3        -0.12515171
   4        -0.11877186
   5         0.01388720
   6        -0.00000000
   7         0.00000000
   8         0.00000000
   9        -0.00000000
  10         0.00000000
  11         0.00000000
  12         0.00000000
  13         0.00000000
  14         0.00000000
  15         0.00000000
  16         0.00000000
  17         0.00000000
  18         0.00000000
  19         0.00000000
  20         0.00000000
  21         0.00000000
  22         0.00000000
  23         0.00000000
  24         0.00000000
  25         0.00000000
  26        -0.00000000
  27         0.00000000
  28         0.00000000
  29         0.00000000
  30         0.00000000
  31         0.00000000
  32         0.00000000
  33         0.00000000
  34        -0.00000000
  35         0.00000000
  36         0.00000000
  37         0.00000000
  38        -0.00000000
  39         0.00000000
  40         0.00000000
  41         0.00000000
  42         0.00000000
  43         0.00000000
  44         0.00000000
  45         0.00000000
  46         0.00000000
  47         0.93790459
  48        -0.02013773
  49        -0.12515171
  50        -0.11877186
  51         0.01388720
  52         0.00000000
  53         0.00000000
  54         0.00000000
  55         0.00000000
  56         0.00000000
  57         0.00000000
  58        -0.00000000
  59         0.00000000
  60         0.00000000
  61        -0.00000000
  62         0.00000000
  63         0.00000000
  64         0.00000000
  65         0.00000000
  66         0.00000000
  67         0.00000000
  68         0.00000000
  69         0.00000000
  70         0.00000000
  71         0.00000000
  72        -0.00000000
  73         0.00000000
  74         0.00000000
  75         0.00000000
  76         0.00000000
  77         0.00000000
  78         0.00000000
  79         0.00000000
  80         0.00000000
  81         0.00000000
  82         0.00000000
  83         0.00000000
  84         0.00000000
  85         0.00000000
  86         0.00000000
  87        -0.00000000
  88         0.00000000
  89         0.00000000
  90         0.00000000
  91         0.00000000
  92         0.00000000
Sym=     2ag 
Ene=     3.0627
Spin= Alpha
Occup=    0.00000
   1         0.03925058
   2        -0.05240184
   3         0.10353238
   4        -0.70524681
   5         1.04707202
   6         0.00000000
   7         0.00000000
   8         0.00000000
   9        -0.00000000
  10         0.00000000
  11         0.00000000
  12         0.00000000
  13         0.00000000
  14         0.00000000
  15        -0.00000000
  16         0.00000000
  17         0.00000000
  18         0.00000000
  19         0.00000000
  20         0.00000000
  21         0.00000000
  22         0.00000000
  23        -0.00000000
  24         0.00000000
  25         0.00000000
  26        -0.00000000
  27         0.00000000
  28         0.00000000
  29         0.00000000
  30         0.00000000
  31        -0.00000000
  32         0.00000000
  33         0.00000000
  34        -0.00000000
  35         0.00000000
  36         0.00000000
  37         0.00000000
  38        -0.00000000
  39         0.00000000
  40         0.00000000
  41         0.00000000
  42         0.00000000
  43         0.00000000
  44         0.00000000
  45         0.00000000
  46         0.00000000
  47         0.03925058
  48        -0.05240184
  49         0.10353238
  50        -0.70524681
  51         1.04707202
  52        -0.00000000
  53         0.00000000
  54         0.00000000
  55         0.00000000
  56         0.00000000
  57         0.00000000
  58        -0.00000000
  59         0.00000000
  60         0.00000000
  61         0.00000000
  62         0.00000000
  63         0.00000000
  64         0.00000000
  65         0.00000000
  66         0.00000000
  67         0.00000000
  68         0.00000000
  69        -0.00000000
  70         0.00000000
  71         0.00000000
  72        -0.00000000
  73         0.00000000
  74         0.00000000
  75         0.00000000
  76         0.00000000
  77        -0.00000000
  78         0.00000000
  79         0.00000000
  80         0.00000000
  81         0.00000000
  82         0.00000000
  83         0.00000000
  84         0.00000000
  85         0.00000000
  86         0.00000000
  87        -0.00000000
  88         0.00000000
  89         0.00000000
  90         0.00000000
  91        -0.00000000
  92         0.00000000
Sym=     3ag 
Ene=     3.1955
Spin= Alpha
Occup=    0.00000
   1        -0.00000000
   2         0.00000000
   3         0.00000000
   4         0.00000000
   5        -0.00000000
   6        -0.01194216
   7         0.00000000
   8         0.00000000
   9         0.05505677
  10         0.00000000
  11         0.00000000
  12        -0.18529188
  13         0.00000000
  14         0.00000000
  15         0.80355445
  16         0.00000000
  17         0.00000000
  18         0.00000000
  19         0.00000000
  20         0.00000000
  21        -0.00000000
  22         0.00000000
  23         0.00000000
  24         0.00000000
  25         0.00000000
  26        -0.00000000
  27         0.00000000
  28        -0.00000000
  29         0.00000000
  30         0.00000000
  31        -0.00000000
  32         0.00000000
  33         0.00000000
  34         0.00000000
  35         0.00000000
  36         0.00000000
  37         0.00000000
  38        -0.00000000
  39         0.00000000
  40         0.00000000
  41        -0.00000000
  42         0.00000000
  43         0.00000000
  44         0.00000000
  45         0.00000000
  46         0.00000000
  47        -0.00000000
  48         0.00000000
  49         0.00000000
  50         0.00000000
  51        -0.00000000
  52         0.01194216
  53         0.00000000
  54         0.00000000
  55        -0.05505677
  56         0.00000000
  57         0.00000000
  58         0.18529188
  59         0.00000000
  60         0.00000000
  61        -0.80355445
  62         0.00000000
  63         0.00000000
  64         0.00000000
  65         0.00000000
  66         0.00000000
  67        -0.00000000
  68         0.00000000
  69         0.00000000
  70         0.00000000
  71         0.00000000
  72        -0.00000000
  73         0.00000000
  74        -0.00000000
  75         0.00000000
  76         0.00000000
  77        -0.00000000
  78         0.00000000
  79         0.00000000
  80        -0.00000000
  81         0.00000000
  82         0.00000000
  83         0.00000000
  84         0.00000000
  85         0.00000000
  86         0.00000000
  87         0.00000000
  88         0.00000000
  89         0.00000000
  90         0.00000000
  91        -0.00000000
  92         0.00000000
Sym=     4ag 
Ene=     3.4670
Spin= Alpha
Occup=    0.00000
   1        -0.27751655
   2         0.27702942
   3        -1.33120372
   4         1.97854236
   5        -0.59455698
   6         0.00000000
   7         0.00000000
   8         0.00000000
   9        -0.00000000
  10         0.00000000
  11         0.00000000
  12         0.00000000
  13         0.00000000
  14         0.00000000
  15        -0.00000000
  16         0.00000000
  17         0.00000000
  18        -0.00000000
  19         0.00000000
  20         0.00000000
  21        -0.00000000
  22         0.00000000
  23         0.00000000
  24         0.00000000
  25         0.00000000
  26         0.00000000
  27         0.00000000
  28        -0.00000000
  29         0.00000000
  30         0.00000000
  31        -0.00000000
  32         0.00000000
  33         0.00000000
  34        -0.00000000
  35         0.00000000
  36         0.00000000
  37         0.00000000
  38        -0.00000000
  39         0.00000000
  40         0.00000000
  41         0.00000000
  42         0.00000000
  43         0.00000000
  44         0.00000000
  45         0.00000000
  46         0.00000000
  47        -0.27751655
  48         0.27702942
  49        -1.33120372
  50         1.97854236
  51        -0.59455698
  52        -0.00000000
  53         0.00000000
  54         0.00000000
  55         0.00000000
  56         0.00000000
  57         0.00000000
  58        -0.00000000
  59         0.00000000
  60         0.00000000
  61         0.00000000
  62         0.00000000
  63         0.00000000
  64        -0.00000000
  65         0.00000000
  66         0.00000000
  67        -0.00000000
  68         0.00000000
  69         0.00000000
  70         0.00000000
  71         0.00000000
  72         0.00000000
  73         0.00000000
  74        -0.00000000
  75         0.00000000
  76         0.00000000
  77        -0.00000000
  78         0.00000000
  79         0.00000000
  80         0.00000000
  81         0.00000000
  82         0.00000000
  83         0.00000000
  84         0.00000000
  85         0.00000000
  86         0.00000000
  87        -0.00000000
  88         0.00000000
  89         0.00000000
  90         0.00000000
  91        -0.00000000
  92         0.00000000
Sym=     5ag 
Ene=     3.6352
Spin= Alpha
Occup=    0.00000
   1         0.00000000
   2        -0.00000000
   3        -0.00000000
   4         0.00000000
   5        -0.00000000
   6         0.00000000
   7         0.00000000
   8         0.00000000
   9        -0.00000000
  10         0.00000000
  11         0.00000000
  12         0.00000000
  13         0.00000000
  14         0.00000000
  15         0.00000000
  16         0.00000000
  17         0.00000000
  18         0.00046279
  19         0.00000000
  20         0.00000000
  21         0.02087319
  22         0.00000000
  23        -0.00256202
  24         0.00000000
  25         0.00000000
  26        -0.11555497
  27         0.00000000
  28         0.01684389
  29         0.00000000
  30         0.00000000
  31         0.75971255
  32         0.00000000
  33         0.00000000
  34         0.00000000
  35         0.00000000
  36         0.00000000
  37         0.00000000
  38         0.00000000
  39         0.00000000
  40         0.00000000
  41        -0.00000000
  42         0.00000000
  43         0.00000000
  44         0.00000000
  45        -0.00000000
  46         0.00000000
  47         0.00000000
  48        -0.00000000
  49        -0.00000000
  50         0.00000000
  51        -0.00000000
  52        -0.00000000
  53         0.00000000
  54         0.00000000
  55         0.00000000
  56         0.00000000
  57         0.00000000
  58        -0.00000000
  59         0.00000000
  60         0.00000000
  61        -0.00000000
  62         0.00000000
  63         0.00000000
  64         0.00046279
  65         0.00000000
  66         0.00000000
  67         0.02087319
  68         0.00000000
  69        -0.00256202
  70         0.00000000
  71         0.00000000
  72        -0.11555497
  73         0.00000000
  74         0.01684389
  75         0.00000000
  76         0.00000000
  77         0.75971255
  78         0.00000000
  79         0.00000000
  80        -0.00000000
  81         0.00000000
  82         0.00000000
  83         0.00000000
  84        -0.00000000
  85         0.00000000
  86         0.00000000
  87         0.00000000
  88         0.00000000
  89         0.00000000
  90         0.00000000
  91         0.00000000
  92         0.00000000
Sym=     6ag 
Ene=     3.6352
Spin= Alpha
Occup=    0.00000
   1        -0.00000000
   2         0.00000000
   3        -0.00000000
   4         0.00000000
   5        -0.00000000
   6         0.00000000
   7         0.00000000
   8         0.00000000
   9        -0.00000000
  10         0.00000000
  11         0.00000000
  12         0.00000000
  13         0.00000000
  14         0.00000000
  15        -0.00000000
  16         0.00000000
  17         0.00000000
  18         0.02087319
  19         0.00000000
  20         0.00000000
  21        -0.00046279
  22         0.00000000
  23        -0.11555497
  24         0.00000000
  25         0.00000000
  26         0.00256202
  27         0.00000000
  28         0.75971255
  29         0.00000000
  30         0.00000000
  31        -0.01684389
  32         0.00000000
  33         0.00000000
  34        -0.00000000
  35         0.00000000
  36         0.00000000
  37         0.00000000
  38         0.00000000
  39         0.00000000
  40         0.00000000
  41         0.00000000
  42         0.00000000
  43         0.00000000
  44         0.00000000
  45        -0.00000000
  46         0.00000000
  47        -0.00000000
  48         0.00000000
  49        -0.00000000
  50         0.00000000
  51        -0.00000000
  52        -0.00000000
  53         0.00000000
  54         0.00000000
  55         0.00000000
  56         0.00000000
  57         0.00000000
  58        -0.00000000
  59         0.00000000
  60         0.00000000
  61         0.00000000
  62         0.00000000
  63         0.00000000
  64         0.02087319
  65         0.00000000
  66         0.00000000
  67        -0.00046279
  68         0.00000000
  69        -0.11555497
  70         0.00000000
  71         0.00000000
  72         0.00256202
  73         0.00000000
  74         0.75971255
  75         0.00000000
  76         0.00000000
  77        -0.01684389
  78         0.00000000
  79         0.00000000
  80         0.00000000
  81         0.00000000
  82         0.00000000
  83         0.00000000
  84        -0.00000000
  85         0.00000000
  86         0.00000000
  87        -0.00000000
  88         0.00000000
  89         0.00000000
  90         0.00000000
  91         0.00000000
  92         0.00000000
Sym=     7ag 
Ene=     3.8635
Spin= Alpha
Occup=    0.00000
   1        -0.00000000
   2         0.00000000
   3         0.00000000
   4         0.00000000
   5        -0.00000000
   6         0.05286866
   7         0.00000000
   8         0.00000000
   9        -0.26492417
  10         0.00000000
  11         0.00000000
  12         1.11348042
  13         0.00000000
  14         0.00000000
  15        -0.53660370
  16         0.00000000
  17         0.00000000
  18        -0.00000000
  19         0.00000000
  20         0.00000000
  21         0.00000000
  22         0.00000000
  23        -0.00000000
  24         0.00000000
  25         0.00000000
  26         0.00000000
  27         0.00000000
  28         0.00000000
  29         0.00000000
  30         0.00000000
  31        -0.00000000
  32         0.00000000
  33         0.00000000
  34        -0.00000000
  35         0.00000000
  36         0.00000000
  37         0.00000000
  38         0.00000000
  39         0.00000000
  40         0.00000000
  41         0.00000000
  42         0.00000000
  43         0.00000000
  44         0.00000000
  45        -0.00000000
  46         0.00000000
  47        -0.00000000
  48         0.00000000
  49         0.00000000
  50         0.00000000
  51        -0.00000000
  52        -0.05286866
  53         0.00000000
  54         0.00000000
  55         0.26492417
  56         0.00000000
  57         0.00000000
  58        -1.11348042
  59         0.00000000
  60         0.00000000
  61         0.53660370
  62         0.00000000
  63         0.00000000
  64        -0.00000000
  65         0.00000000
  66         0.00000000
  67         0.00000000
  68         0.00000000
  69        -0.00000000
  70         0.00000000
  71         0.00000000
  72         0.00000000
  73         0.00000000
  74         0.00000000
  75         0.00000000
  76         0.00000000
  77        -0.00000000
  78         0.00000000
  79         0.00000000
  80         0.00000000
  81         0.00000000
  82         0.00000000
  83         0.00000000
  84        -0.00000000
  85         0.00000000
  86         0.00000000
  87        -0.00000000
  88         0.00000000
  89         0.00000000
  90         0.00000000
  91         0.00000000
  92         0.00000000
Sym=     8ag 
Ene=     4.5898
Spin= Alpha
Occup=    0.00000
   1        -0.00000000
   2         0.00000000
   3        -0.00000000
   4        -0.00000000
   5         0.00000000
   6        -0.00000000
   7         0.00000000
   8         0.00000000
   9         0.00000000
  10         0.00000000
  11         0.00000000
  12         0.00000000
  13         0.00000000
  14         0.00000000
  15        -0.00000000
  16         0.00000000
  17         0.00000000
  18         0.00000000
  19         0.00000000
  20         0.00000000
  21        -0.00000000
  22         0.00000000
  23         0.00000000
  24         0.00000000
  25         0.00000000
  26         0.00000000
  27         0.00000000
  28         0.00000000
  29         0.00000000
  30         0.00000000
  31        -0.00000000
  32         0.00000000
  33         0.00000000
  34         0.03090038
  35         0.00000000
  36         0.00000000
  37         0.00000000
  38        -0.04940379
  39         0.00000000
  40         0.00000000
  41        -0.38566668
  42         0.00000000
  43         0.00000000
  44         0.00000000
  45         0.61660729
  46         0.00000000
  47        -0.00000000
  48         0.00000000
  49        -0.00000000
  50        -0.00000000
  51         0.00000000
  52         0.00000000
  53         0.00000000
  54         0.00000000
  55        -0.00000000
  56         0.00000000
  57         0.00000000
  58        -0.00000000
  59         0.00000000
  60         0.00000000
  61         0.00000000
  62         0.00000000
  63         0.00000000
  64         0.00000000
  65         0.00000000
  66         0.00000000
  67        -0.00000000
  68         0.00000000
  69         0.00000000
  70         0.00000000
  71         0.00000000
  72         0.00000000
  73         0.00000000
  74         0.00000000
  75         0.00000000
  76         0.00000000
  77        -0.00000000
  78         0.00000000
  79         0.00000000
  80        -0.03090038
  81         0.00000000
  82         0.00000000
  83         0.00000000
  84         0.04940379
  85         0.00000000
  86         0.00000000
  87         0.38566668
  88         0.00000000
  89         0.00000000
  90         0.00000000
  91        -0.61660729
  92         0.00000000
Sym=     9ag 
Ene=     4.5898
Spin= Alpha
Occup=    0.00000
   1         0.00000000
   2        -0.00000000
   3         0.00000000
   4         0.00000000
   5        -0.00000000
   6         0.00000000
   7         0.00000000
   8         0.00000000
   9        -0.00000000
  10         0.00000000
  11         0.00000000
  12        -0.00000000
  13         0.00000000
  14         0.00000000
  15         0.00000000
  16         0.00000000
  17         0.00000000
  18        -0.00000000
  19         0.00000000
  20         0.00000000
  21         0.00000000
  22         0.00000000
  23        -0.00000000
  24         0.00000000
  25         0.00000000
  26        -0.00000000
  27         0.00000000
  28        -0.00000000
  29         0.00000000
  30         0.00000000
  31         0.00000000
  32         0.00000000
  33         0.00000000
  34        -0.04940379
  35         0.00000000
  36         0.00000000
  37         0.00000000
  38        -0.03090038
  39         0.00000000
  40         0.00000000
  41         0.61660729
  42         0.00000000
  43         0.00000000
  44         0.00000000
  45         0.38566668
  46         0.00000000
  47         0.00000000
  48        -0.00000000
  49         0.00000000
  50         0.00000000
  51        -0.00000000
  52        -0.00000000
  53         0.00000000
  54         0.00000000
  55         0.00000000
  56         0.00000000
  57         0.00000000
  58         0.00000000
  59         0.00000000
  60         0.00000000
  61        -0.00000000
  62         0.00000000
  63         0.00000000
  64        -0.00000000
  65         0.00000000
  66         0.00000000
  67         0.00000000
  68         0.00000000
  69        -0.00000000
  70         0.00000000
  71         0.00000000
  72        -0.00000000
  73         0.00000000
  74        -0.00000000
  75         0.00000000
  76         0.00000000
  77         0.00000000
  78         0.00000000
  79         0.00000000
  80         0.04940379
  81         0.00000000
  82         0.00000000
  83         0.00000000
  84         0.03090038
  85         0.00000000
  86         0.00000000
  87        -0.61660729
  88         0.00000000
  89         0.00000000
  90         0.00000000
  91        -0.38566668
  92         0.00000000
Sym=    10ag 
Ene=     5.0695
Spin= Alpha
Occup=    0.00000
   1        -1.19669832
   2         1.82896352
   3        -1.44446200
   4         1.35048620
   5        -0.25983088
   6        -0.00000000
   7         0.00000000
   8         0.00000000
   9         0.00000000
  10         0.00000000
  11         0.00000000
  12        -0.00000000
  13         0.00000000
  14         0.00000000
  15         0.00000000
  16         0.00000000
  17         0.00000000
  18        -0.00000000
  19         0.00000000
  20         0.00000000
  21         0.00000000
  22         0.00000000
  23         0.00000000
  24         0.00000000
  25         0.00000000
  26        -0.00000000
  27         0.00000000
  28        -0.00000000
  29         0.00000000
  30         0.00000000
  31         0.00000000
  32         0.00000000
  33         0.00000000
  34         0.00000000
  35         0.00000000
  36         0.00000000
  37         0.00000000
  38         0.00000000
  39         0.00000000
  40         0.00000000
  41        -0.00000000
  42         0.00000000
  43         0.00000000
  44         0.00000000
  45        -0.00000000
  46         0.00000000
  47        -1.19669832
  48         1.82896352
  49        -1.44446200
  50         1.35048620
  51        -0.25983088
  52         0.00000000
  53         0.00000000
  54         0.00000000
  55        -0.00000000
  56         0.00000000
  57         0.00000000
  58         0.00000000
  59         0.00000000
  60         0.00000000
  61        -0.00000000
  62         0.00000000
  63         0.00000000
  64        -0.00000000
  65         0.00000000
  66         0.00000000
  67         0.00000000
  68         0.00000000
  69         0.00000000
  70         0.00000000
  71         0.00000000
  72        -0.00000000
  73         0.00000000
  74        -0.00000000
  75         0.00000000
  76         0.00000000
  77         0.00000000
  78         0.00000000
  79         0.00000000
  80        -0.00000000
  81         0.00000000
  82         0.00000000
  83         0.00000000
  84        -0.00000000
  85         0.00000000
  86         0.00000000
  87         0.00000000
  88         0.00000000
  89         0.00000000
  90         0.00000000
  91         0.00000000
  92         0.00000000
Sym=    11ag 
Ene=     5.5825
Spin= Alpha
Occup=    0.00000
   1         0.00000000
   2         0.00000000
   3        -0.00000000
   4        -0.00000000
   5        -0.00000000
   6         0.00000000
   7         0.00000000
   8         0.00000000
   9        -0.00000000
  10         0.00000000
  11         0.00000000
  12        -0.00000000
  13         0.00000000
  14         0.00000000
  15         0.00000000
  16         0.00000000
  17         0.00000000
  18         0.01741998
  19         0.00000000
  20         0.00000000
  21        -0.11828034
  22         0.00000000
  23        -0.13165349
  24         0.00000000
  25         0.00000000
  26         0.89391731
  27         0.00000000
  28         0.05440862
  29         0.00000000
  30         0.00000000
  31        -0.36943048
  32         0.00000000
  33         0.00000000
  34        -0.00000000
  35         0.00000000
  36         0.00000000
  37         0.00000000
  38         0.00000000
  39         0.00000000
  40         0.00000000
  41         0.00000000
  42         0.00000000
  43         0.00000000
  44         0.00000000
  45         0.00000000
  46         0.00000000
  47         0.00000000
  48         0.00000000
  49        -0.00000000
  50        -0.00000000
  51        -0.00000000
  52        -0.00000000
  53         0.00000000
  54         0.00000000
  55         0.00000000
  56         0.00000000
  57         0.00000000
  58         0.00000000
  59         0.00000000
  60         0.00000000
  61        -0.00000000
  62         0.00000000
  63         0.00000000
  64         0.01741998
  65         0.00000000
  66         0.00000000
  67        -0.11828034
  68         0.00000000
  69        -0.13165349
  70         0.00000000
  71         0.00000000
  72         0.89391731
  73         0.00000000
  74         0.05440862
  75         0.00000000
  76         0.00000000
  77        -0.36943048
  78         0.00000000
  79         0.00000000
  80         0.00000000
  81         0.00000000
  82         0.00000000
  83         0.00000000
  84        -0.00000000
  85         0.00000000
  86         0.00000000
  87        -0.00000000
  88         0.00000000
  89         0.00000000
  90         0.00000000
  91        -0.00000000
  92         0.00000000
Sym=    12ag 
Ene=     5.5825
Spin= Alpha
Occup=    0.00000
   1        -0.00000000
   2        -0.00000000
   3         0.00000000
   4        -0.00000000
   5         0.00000000
   6        -0.00000000
   7         0.00000000
   8         0.00000000
   9         0.00000000
  10         0.00000000
  11         0.00000000
  12         0.00000000
  13         0.00000000
  14         0.00000000
  15        -0.00000000
  16         0.00000000
  17         0.00000000
  18        -0.11828034
  19         0.00000000
  20         0.00000000
  21        -0.01741998
  22         0.00000000
  23         0.89391731
  24         0.00000000
  25         0.00000000
  26         0.13165349
  27         0.00000000
  28        -0.36943048
  29         0.00000000
  30         0.00000000
  31        -0.05440862
  32         0.00000000
  33         0.00000000
  34        -0.00000000
  35         0.00000000
  36         0.00000000
  37         0.00000000
  38        -0.00000000
  39         0.00000000
  40         0.00000000
  41         0.00000000
  42         0.00000000
  43         0.00000000
  44         0.00000000
  45         0.00000000
  46         0.00000000
  47        -0.00000000
  48        -0.00000000
  49         0.00000000
  50        -0.00000000
  51         0.00000000
  52         0.00000000
  53         0.00000000
  54         0.00000000
  55        -0.00000000
  56         0.00000000
  57         0.00000000
  58        -0.00000000
  59         0.00000000
  60         0.00000000
  61         0.00000000
  62         0.00000000
  63         0.00000000
  64        -0.11828034
  65         0.00000000
  66         0.00000000
  67        -0.01741998
  68         0.00000000
  69         0.89391731
  70         0.00000000
  71         0.00000000
  72         0.13165349
  73         0.00000000
  74        -0.36943048
  75         0.00000000
  76         0.00000000
  77        -0.05440862
  78         0.00000000
  79         0.00000000
  80         0.00000000
  81         0.00000000
  82         0.00000000
  83         0.00000000
  84         0.00000000
  85         0.00000000
  86         0.00000000
  87        -0.00000000
  88         0.00000000
  89         0.00000000
  90         0.00000000
  91        -0.00000000
  92         0.00000000
Sym=    13ag 
Ene=     5.8501
Spin= Alpha
Occup=    0.00000
   1         0.00000000
   2        -0.00000000
   3        -0.00000000
   4        -0.00000000
   5         0.00000000
   6        -0.21449479
   7         0.00000000
   8         0.00000000
   9         1.29885328
  10         0.00000000
  11         0.00000000
  12        -0.93977468
  13         0.00000000
  14         0.00000000
  15         0.28139292
  16         0.00000000
  17         0.00000000
  18         0.00000000
  19         0.00000000
  20         0.00000000
  21        -0.00000000
  22         0.00000000
  23        -0.00000000
  24         0.00000000
  25         0.00000000
  26         0.00000000
  27         0.00000000
  28         0.00000000
  29         0.00000000
  30         0.00000000
  31        -0.00000000
  32         0.00000000
  33         0.00000000
  34         0.00000000