[Molden Format]
[N_Atoms]
                    2
[Atoms] (AU)
H1          1      1           0.00000000      0.00000000      0.00000000
H2          2      1     ****************      0.00000000      0.00000000
[5D]
[7F]
[Charge] (Mulliken)
   1.0000000000000000     
 -0.99999999999999845     
[GTO] (AU)
   1
   s   6
  8.264000000E+01  2.006000801E-03
  1.241000000E+01  1.534300612E-02
  2.824000000E+00  7.557903017E-02
  7.977000000E-01  2.568751025E-01
  2.581000000E-01  4.973681985E-01
  8.989000000E-02  2.961331182E-01
   s   1
  7.977000000E-01  1.000000000E+00
   s   1
  2.581000000E-01  1.000000000E+00
   s   1
  8.989000000E-02  1.000000000E+00
   s   1
  2.363000000E-02  1.000000000E+00
   p   1
  2.292000000E+00  1.000000000E+00
   p   1
  8.380000000E-01  1.000000000E+00
   p   1
  2.920000000E-01  1.000000000E+00
   p   1
  8.480000000E-02  1.000000000E+00
   d   1
  2.062000000E+00  1.000000000E+00
   d   1
  6.620000000E-01  1.000000000E+00
   d   1
  1.900000000E-01  1.000000000E+00
   f   1
  1.397000000E+00  1.000000000E+00
   f   1
  3.600000000E-01  1.000000000E+00
 
   2
   s   6
  8.264000000E+01  2.006000801E-03
  1.241000000E+01  1.534300612E-02
  2.824000000E+00  7.557903017E-02
  7.977000000E-01  2.568751025E-01
  2.581000000E-01  4.973681985E-01
  8.989000000E-02  2.961331182E-01
   s   1
  7.977000000E-01  1.000000000E+00
   s   1
  2.581000000E-01  1.000000000E+00
   s   1
  8.989000000E-02  1.000000000E+00
   s   1
  2.363000000E-02  1.000000000E+00
   p   1
  2.292000000E+00  1.000000000E+00
   p   1
  8.380000000E-01  1.000000000E+00
   p   1
  2.920000000E-01  1.000000000E+00
   p   1
  8.480000000E-02  1.000000000E+00
   d   1
  2.062000000E+00  1.000000000E+00
   d   1
  6.620000000E-01  1.000000000E+00
   d   1
  1.900000000E-01  1.000000000E+00
   f   1
  1.397000000E+00  1.000000000E+00
   f   1
  3.600000000E-01  1.000000000E+00
 
[MO]
Sym=     1a  
Ene=    -0.5000
Spin= Alpha
Occup=    2.00000
   1         0.00000000
   2         0.00000000
   3         0.00000000
   4         0.00000000
   5         0.00000000
   6         0.00000000
   7         0.00000000
   8         0.00000000
   9         0.00000000
  10         0.00000000
  11         0.00000000
  12         0.00000000
  13         0.00000000
  14         0.00000000
  15         0.00000000
  16         0.00000000
  17         0.00000000
  18         0.00000000
  19         0.00000000
  20         0.00000000
  21         0.00000000
  22         0.00000000
  23         0.00000000
  24         0.00000000
  25         0.00000000
  26         0.00000000
  27         0.00000000
  28         0.00000000
  29         0.00000000
  30         0.00000000
  31         0.00000000
  32         0.00000000
  33         0.00000000
  34         0.00000000
  35         0.00000000
  36         0.00000000
  37         0.00000000
  38         0.00000000
  39         0.00000000
  40         0.00000000
  41         0.00000000
  42         0.00000000
  43         0.00000000
  44         0.00000000
  45         0.00000000
  46         0.00000000
  47         1.00069493
  48        -0.00076225
  49         0.00177306
  50        -0.00446894
  51         0.00413152
  52        -0.00000000
  53         0.00000000
  54         0.00000000
  55         0.00000000
  56        -0.00000000
  57         0.00000000
  58        -0.00000000
  59         0.00000000
  60        -0.00000000
  61         0.00000000
  62         0.00000000
  63         0.00000000
  64         0.00000000
  65         0.00000000
  66        -0.00000000
  67         0.00000000
  68         0.00000000
  69         0.00000000
  70        -0.00000000
  71         0.00000000
  72        -0.00000000
  73        -0.00000000
  74        -0.00000000
  75        -0.00000000
  76        -0.00000000
  77         0.00000000
  78         0.00000000
  79         0.00000000
  80        -0.00000000
  81        -0.00000000
  82         0.00000000
  83        -0.00000000
  84         0.00000000
  85         0.00000000
  86         0.00000000
  87         0.00000000
  88         0.00000000
  89        -0.00000000
  90         0.00000000
  91        -0.00000000
  92         0.00000000
Sym=     2a  
Ene=    -0.1244
Spin= Alpha
Occup=    0.00000
   1         0.00000000
   2         0.00000000
   3         0.00000000
   4         0.00000000
   5         0.00000000
   6         0.00000000
   7         0.00000000
   8         0.00000000
   9         0.00000000
  10         0.00000000
  11         0.00000000
  12         0.00000000
  13         0.00000000
  14         0.00000000
  15         0.00000000
  16         0.00000000
  17         0.00000000
  18         0.00000000
  19         0.00000000
  20         0.00000000
  21         0.00000000
  22         0.00000000
  23         0.00000000
  24         0.00000000
  25         0.00000000
  26         0.00000000
  27         0.00000000
  28         0.00000000
  29         0.00000000
  30         0.00000000
  31         0.00000000
  32         0.00000000
  33         0.00000000
  34         0.00000000
  35         0.00000000
  36         0.00000000
  37         0.00000000
  38         0.00000000
  39         0.00000000
  40         0.00000000
  41         0.00000000
  42         0.00000000
  43         0.00000000
  44         0.00000000
  45         0.00000000
  46         0.00000000
  47        -0.37663737
  48        -0.01061159
  49        -0.10703604
  50        -0.07905194
  51         1.16089145
  52        -0.00000000
  53        -0.00000000
  54        -0.00000000
  55        -0.00000000
  56         0.00000000
  57         0.00000000
  58         0.00000000
  59         0.00000000
  60        -0.00000000
  61         0.00000000
  62         0.00000000
  63         0.00000000
  64         0.00000000
  65        -0.00000000
  66        -0.00000000
  67         0.00000000
  68        -0.00000000
  69         0.00000000
  70         0.00000000
  71         0.00000000
  72        -0.00000000
  73         0.00000000
  74        -0.00000000
  75        -0.00000000
  76        -0.00000000
  77         0.00000000
  78        -0.00000000
  79         0.00000000
  80        -0.00000000
  81        -0.00000000
  82         0.00000000
  83        -0.00000000
  84        -0.00000000
  85        -0.00000000
  86        -0.00000000
  87         0.00000000
  88         0.00000000
  89        -0.00000000
  90         0.00000000
  91         0.00000000
  92        -0.00000000
Sym=     3a  
Ene=    -0.1010
Spin= Alpha
Occup=    0.00000
   1         0.00000000
   2         0.00000000
   3         0.00000000
   4         0.00000000
   5         0.00000000
   6         0.00000000
   7         0.00000000
   8         0.00000000
   9         0.00000000
  10         0.00000000
  11         0.00000000
  12         0.00000000
  13         0.00000000
  14         0.00000000
  15         0.00000000
  16         0.00000000
  17         0.00000000
  18         0.00000000
  19         0.00000000
  20         0.00000000
  21         0.00000000
  22         0.00000000
  23         0.00000000
  24         0.00000000
  25         0.00000000
  26         0.00000000
  27         0.00000000
  28         0.00000000
  29         0.00000000
  30         0.00000000
  31         0.00000000
  32         0.00000000
  33         0.00000000
  34         0.00000000
  35         0.00000000
  36         0.00000000
  37         0.00000000
  38         0.00000000
  39         0.00000000
  40         0.00000000
  41         0.00000000
  42         0.00000000
  43         0.00000000
  44         0.00000000
  45         0.00000000
  46         0.00000000
  47        -0.00000000
  48         0.00000000
  49         0.00000000
  50         0.00000000
  51        -0.00000000
  52        -0.00081384
  53        -0.00000041
  54        -0.00104688
  55         0.02546002
  56         0.00001274
  57         0.03275005
  58         0.02033533
  59         0.00001017
  60         0.02615800
  61         0.59326731
  62         0.00029677
  63         0.76313913
  64        -0.00000000
  65        -0.00000000
  66         0.00000000
  67         0.00000000
  68        -0.00000000
  69         0.00000000
  70         0.00000000
  71        -0.00000000
  72        -0.00000000
  73         0.00000000
  74        -0.00000000
  75        -0.00000000
  76        -0.00000000
  77         0.00000000
  78        -0.00000000
  79        -0.00000000
  80        -0.00000000
  81         0.00000000
  82        -0.00000000
  83         0.00000000
  84        -0.00000000
  85         0.00000000
  86         0.00000000
  87         0.00000000
  88         0.00000000
  89         0.00000000
  90        -0.00000000
  91        -0.00000000
  92         0.00000000
Sym=     4a  
Ene=    -0.1010
Spin= Alpha
Occup=    0.00000
   1         0.00000000
   2         0.00000000
   3         0.00000000
   4         0.00000000
   5         0.00000000
   6         0.00000000
   7         0.00000000
   8         0.00000000
   9         0.00000000
  10         0.00000000
  11         0.00000000
  12         0.00000000
  13         0.00000000
  14         0.00000000
  15         0.00000000
  16         0.00000000
  17         0.00000000
  18         0.00000000
  19         0.00000000
  20         0.00000000
  21         0.00000000
  22         0.00000000
  23         0.00000000
  24         0.00000000
  25         0.00000000
  26         0.00000000
  27         0.00000000
  28         0.00000000
  29         0.00000000
  30         0.00000000
  31         0.00000000
  32         0.00000000
  33         0.00000000
  34         0.00000000
  35         0.00000000
  36         0.00000000
  37         0.00000000
  38         0.00000000
  39         0.00000000
  40         0.00000000
  41         0.00000000
  42         0.00000000
  43         0.00000000
  44         0.00000000
  45         0.00000000
  46         0.00000000
  47        -0.00000000
  48         0.00000000
  49         0.00000000
  50         0.00000000
  51         0.00000000
  52         0.00000092
  53        -0.00132601
  54        -0.00000020
  55        -0.00002873
  56         0.04148226
  57         0.00000620
  58        -0.00002295
  59         0.03313256
  60         0.00000495
  61        -0.00066946
  62         0.96661628
  63         0.00014454
  64        -0.00000000
  65         0.00000000
  66         0.00000000
  67         0.00000000
  68        -0.00000000
  69        -0.00000000
  70        -0.00000000
  71        -0.00000000
  72         0.00000000
  73         0.00000000
  74         0.00000000
  75         0.00000000
  76         0.00000000
  77        -0.00000000
  78        -0.00000000
  79        -0.00000000
  80        -0.00000000
  81        -0.00000000
  82        -0.00000000
  83        -0.00000000
  84        -0.00000000
  85         0.00000000
  86         0.00000000
  87         0.00000000
  88         0.00000000
  89         0.00000000
  90        -0.00000000
  91         0.00000000
  92         0.00000000
Sym=     5a  
Ene=    -0.1010
Spin= Alpha
Occup=    0.00000
   1         0.00000000
   2         0.00000000
   3         0.00000000
   4         0.00000000
   5         0.00000000
   6         0.00000000
   7         0.00000000
   8         0.00000000
   9         0.00000000
  10         0.00000000
  11         0.00000000
  12         0.00000000
  13         0.00000000
  14         0.00000000
  15         0.00000000
  16         0.00000000
  17         0.00000000
  18         0.00000000
  19         0.00000000
  20         0.00000000
  21         0.00000000
  22         0.00000000
  23         0.00000000
  24         0.00000000
  25         0.00000000
  26         0.00000000
  27         0.00000000
  28         0.00000000
  29         0.00000000
  30         0.00000000
  31         0.00000000
  32         0.00000000
  33         0.00000000
  34         0.00000000
  35         0.00000000
  36         0.00000000
  37         0.00000000
  38         0.00000000
  39         0.00000000
  40         0.00000000
  41         0.00000000
  42         0.00000000
  43         0.00000000
  44         0.00000000
  45         0.00000000
  46         0.00000000
  47        -0.00000000
  48         0.00000000
  49         0.00000000
  50         0.00000000
  51        -0.00000000
  52        -0.00104687
  53        -0.00000085
  54         0.00081384
  55         0.03275004
  56         0.00002649
  57        -0.02546002
  58         0.02615799
  59         0.00002116
  60        -0.02033533
  61         0.76313889
  62         0.00061725
  63        -0.59326736
  64         0.00000000
  65        -0.00000000
  66        -0.00000000
  67        -0.00000000
  68         0.00000000
  69        -0.00000000
  70         0.00000000
  71        -0.00000000
  72         0.00000000
  73        -0.00000000
  74         0.00000000
  75         0.00000000
  76         0.00000000
  77        -0.00000000
  78         0.00000000
  79         0.00000000
  80         0.00000000
  81        -0.00000000
  82         0.00000000
  83        -0.00000000
  84         0.00000000
  85        -0.00000000
  86         0.00000000
  87         0.00000000
  88         0.00000000
  89         0.00000000
  90         0.00000000
  91        -0.00000000
  92         0.00000000
Sym=     6a  
Ene=    -0.0459
Spin= Alpha
Occup=    0.00000
   1        -0.67568888
   2         0.01769380
   3         0.05990945
   4        -0.18512756
   5        -0.34392108
   6         0.00000000
   7         0.00000000
   8         0.00000000
   9         0.00000000
  10        -0.00000000
  11        -0.00000000
  12        -0.00000000
  13         0.00000000
  14         0.00000000
  15        -0.00000000
  16        -0.00000000
  17         0.00000000
  18         0.00000000
  19        -0.00000000
  20        -0.00000000
  21         0.00000000
  22        -0.00000000
  23        -0.00000000
  24         0.00000000
  25         0.00000000
  26         0.00000000
  27        -0.00000000
  28         0.00000000
  29         0.00000000
  30         0.00000000
  31        -0.00000000
  32         0.00000000
  33         0.00000000
  34         0.00000000
  35         0.00000000
  36        -0.00000000
  37         0.00000000
  38         0.00000000
  39         0.00000000
  40        -0.00000000
  41         0.00000000
  42        -0.00000000
  43         0.00000000
  44        -0.00000000
  45         0.00000000
  46        -0.00000000
  47         0.00000000
  48         0.00000000
  49         0.00000000
  50         0.00000000
  51         0.00000000
  52         0.00000000
  53         0.00000000
  54         0.00000000
  55         0.00000000
  56         0.00000000
  57         0.00000000
  58         0.00000000
  59         0.00000000
  60         0.00000000
  61         0.00000000
  62         0.00000000
  63         0.00000000
  64         0.00000000
  65         0.00000000
  66         0.00000000
  67         0.00000000
  68         0.00000000
  69         0.00000000
  70         0.00000000
  71         0.00000000
  72         0.00000000
  73         0.00000000
  74         0.00000000
  75         0.00000000
  76         0.00000000
  77         0.00000000
  78         0.00000000
  79         0.00000000
  80         0.00000000
  81         0.00000000
  82         0.00000000
  83         0.00000000
  84         0.00000000
  85         0.00000000
  86         0.00000000
  87         0.00000000
  88         0.00000000
  89         0.00000000
  90         0.00000000
  91         0.00000000
  92         0.00000000
Sym=     7a  
Ene=     0.0850
Spin= Alpha
Occup=    0.00000
   1         0.00000000
   2         0.00000000
   3         0.00000000
   4         0.00000000
   5         0.00000000
   6         0.00000000
   7         0.00000000
   8         0.00000000
   9         0.00000000
  10         0.00000000
  11         0.00000000
  12         0.00000000
  13         0.00000000
  14         0.00000000
  15         0.00000000
  16         0.00000000
  17         0.00000000
  18         0.00000000
  19         0.00000000
  20         0.00000000
  21         0.00000000
  22         0.00000000
  23         0.00000000
  24         0.00000000
  25         0.00000000
  26         0.00000000
  27         0.00000000
  28         0.00000000
  29         0.00000000
  30         0.00000000
  31         0.00000000
  32         0.00000000
  33         0.00000000
  34         0.00000000
  35         0.00000000
  36         0.00000000
  37         0.00000000
  38         0.00000000
  39         0.00000000
  40         0.00000000
  41         0.00000000
  42         0.00000000
  43         0.00000000
  44         0.00000000
  45         0.00000000
  46         0.00000000
  47         0.87561205
  48        -0.17181061
  49         1.07987126
  50        -2.80763931
  51         1.19897838
  52         0.00000000
  53         0.00000000
  54        -0.00000000
  55        -0.00000000
  56        -0.00000000
  57         0.00000000
  58         0.00000000
  59         0.00000000
  60        -0.00000000
  61         0.00000000
  62        -0.00000000
  63        -0.00000000
  64        -0.00000000
  65         0.00000000
  66         0.00000000
  67        -0.00000000
  68        -0.00000000
  69         0.00000000
  70        -0.00000000
  71        -0.00000000
  72         0.00000000
  73        -0.00000000
  74         0.00000000
  75         0.00000000
  76         0.00000000
  77        -0.00000000
  78         0.00000000
  79         0.00000000
  80        -0.00000000
  81        -0.00000000
  82        -0.00000000
  83         0.00000000
  84        -0.00000000
  85        -0.00000000
  86         0.00000000
  87        -0.00000000
  88         0.00000000
  89         0.00000000
  90        -0.00000000
  91         0.00000000
  92         0.00000000
Sym=     8a  
Ene=     0.2234
Spin= Alpha
Occup=    0.00000
   1         0.23335842
   2         0.10454370
   3        -0.35134519
   4         1.24363544
   5        -1.48981688
   6         0.00000000
   7        -0.00000000
   8         0.00000000
   9        -0.00000000
  10        -0.00000000
  11        -0.00000000
  12         0.00000000
  13        -0.00000000
  14        -0.00000000
  15        -0.00000000
  16        -0.00000000
  17        -0.00000000
  18        -0.00000000
  19         0.00000000
  20         0.00000000
  21        -0.00000000
  22         0.00000000
  23         0.00000000
  24        -0.00000000
  25        -0.00000000
  26         0.00000000
  27        -0.00000000
  28        -0.00000000
  29         0.00000000
  30         0.00000000
  31        -0.00000000
  32         0.00000000
  33        -0.00000000
  34         0.00000000
  35        -0.00000000
  36         0.00000000
  37         0.00000000
  38         0.00000000
  39         0.00000000
  40         0.00000000
  41        -0.00000000
  42         0.00000000
  43        -0.00000000
  44        -0.00000000
  45        -0.00000000
  46         0.00000000
  47         0.00000000
  48         0.00000000
  49         0.00000000
  50         0.00000000
  51         0.00000000
  52         0.00000000
  53         0.00000000
  54         0.00000000
  55         0.00000000
  56         0.00000000
  57         0.00000000
  58         0.00000000
  59         0.00000000
  60         0.00000000
  61         0.00000000
  62         0.00000000
  63         0.00000000
  64         0.00000000
  65         0.00000000
  66         0.00000000
  67         0.00000000
  68         0.00000000
  69         0.00000000
  70         0.00000000
  71         0.00000000
  72         0.00000000
  73         0.00000000
  74         0.00000000
  75         0.00000000
  76         0.00000000
  77         0.00000000
  78         0.00000000
  79         0.00000000
  80         0.00000000
  81         0.00000000
  82         0.00000000
  83         0.00000000
  84         0.00000000
  85         0.00000000
  86         0.00000000
  87         0.00000000
  88         0.00000000
  89         0.00000000
  90         0.00000000
  91         0.00000000
  92         0.00000000
Sym=     9a  
Ene=     0.2842
Spin= Alpha
Occup=    0.00000
   1         0.00000000
   2         0.00000000
   3         0.00000000
   4         0.00000000
   5         0.00000000
   6         0.00000000
   7         0.00000000
   8         0.00000000
   9         0.00000000
  10         0.00000000
  11         0.00000000
  12         0.00000000
  13         0.00000000
  14         0.00000000
  15         0.00000000
  16         0.00000000
  17         0.00000000
  18         0.00000000
  19         0.00000000
  20         0.00000000
  21         0.00000000
  22         0.00000000
  23         0.00000000
  24         0.00000000
  25         0.00000000
  26         0.00000000
  27         0.00000000
  28         0.00000000
  29         0.00000000
  30         0.00000000
  31         0.00000000
  32         0.00000000
  33         0.00000000
  34         0.00000000
  35         0.00000000
  36         0.00000000
  37         0.00000000
  38         0.00000000
  39         0.00000000
  40         0.00000000
  41         0.00000000
  42         0.00000000
  43         0.00000000
  44         0.00000000
  45         0.00000000
  46         0.00000000
  47         0.00000000
  48         0.00000000
  49         0.00000000
  50        -0.00000000
  51         0.00000000
  52         0.00000000
  53         0.00000000
  54         0.00000000
  55        -0.00000000
  56        -0.00000000
  57         0.00000000
  58         0.00000000
  59         0.00000000
  60        -0.00000000
  61        -0.00000000
  62        -0.00000000
  63        -0.00000000
  64        -0.01512823
  65         0.00095477
  66        -0.00217013
  67         0.01641952
  68        -0.00116373
  69         0.06836388
  70        -0.00431455
  71         0.00980673
  72        -0.07419914
  73         0.00525884
  74        -0.70507499
  75         0.04449841
  76        -0.10114230
  77         0.76525734
  78        -0.05423735
  79        -0.00000000
  80        -0.00000000
  81        -0.00000000
  82        -0.00000000
  83         0.00000000
  84         0.00000000
  85         0.00000000
  86        -0.00000000
  87        -0.00000000
  88         0.00000000
  89         0.00000000
  90         0.00000000
  91         0.00000000
  92         0.00000000
Sym=    10a  
Ene=     0.2842
Spin= Alpha
Occup=    0.00000
   1         0.00000000
   2         0.00000000
   3         0.00000000
   4         0.00000000
   5         0.00000000
   6         0.00000000
   7         0.00000000
   8         0.00000000
   9         0.00000000
  10         0.00000000
  11         0.00000000
  12         0.00000000
  13         0.00000000
  14         0.00000000
  15         0.00000000
  16         0.00000000
  17         0.00000000
  18         0.00000000
  19         0.00000000
  20         0.00000000
  21         0.00000000
  22         0.00000000
  23         0.00000000
  24         0.00000000
  25         0.00000000
  26         0.00000000
  27         0.00000000
  28         0.00000000
  29         0.00000000
  30         0.00000000
  31         0.00000000
  32         0.00000000
  33         0.00000000
  34         0.00000000
  35         0.00000000
  36         0.00000000
  37         0.00000000
  38         0.00000000
  39         0.00000000
  40         0.00000000
  41         0.00000000
  42         0.00000000
  43         0.00000000
  44         0.00000000
  45         0.00000000
  46         0.00000000
  47        -0.00000000
  48         0.00000000
  49        -0.00000000
  50         0.00000000
  51        -0.00000000
  52         0.00000000
  53         0.00000000
  54        -0.00000000
  55        -0.00000000
  56        -0.00000000
  57         0.00000000
  58         0.00000000
  59         0.00000000
  60         0.00000000
  61         0.00000000
  62         0.00000000
  63        -0.00000000
  64         0.00467314
  65        -0.00197026
  66         0.02070199
  67         0.00715134
  68        -0.00007045
  69        -0.02111774
  70         0.00890354
  71        -0.09355147
  72        -0.03231662
  73         0.00031835
  74         0.21779912
  75        -0.09182720
  76         0.96484876
  77         0.33329941
  78        -0.00328334
  79         0.00000000
  80        -0.00000000
  81         0.00000000
  82         0.00000000
  83         0.00000000
  84         0.00000000
  85         0.00000000
  86         0.00000000
  87        -0.00000000
  88        -0.00000000
  89         0.00000000
  90         0.00000000
  91        -0.00000000
  92         0.00000000
Sym=    11a  
Ene=     0.2842
Spin= Alpha
Occup=    0.00000
   1         0.00000000
   2         0.00000000
   3         0.00000000
   4         0.00000000
   5         0.00000000
   6         0.00000000
   7         0.00000000
   8         0.00000000
   9         0.00000000
  10         0.00000000
  11         0.00000000
  12         0.00000000
  13         0.00000000
  14         0.00000000
  15         0.00000000
  16         0.00000000
  17         0.00000000
  18         0.00000000
  19         0.00000000
  20         0.00000000
  21         0.00000000
  22         0.00000000
  23         0.00000000
  24         0.00000000
  25         0.00000000
  26         0.00000000
  27         0.00000000
  28         0.00000000
  29         0.00000000
  30         0.00000000
  31         0.00000000
  32         0.00000000
  33         0.00000000
  34         0.00000000
  35         0.00000000
  36         0.00000000
  37         0.00000000
  38         0.00000000
  39         0.00000000
  40         0.00000000
  41         0.00000000
  42         0.00000000
  43         0.00000000
  44         0.00000000
  45         0.00000000
  46         0.00000000
  47        -0.00000000
  48         0.00000000
  49        -0.00000000
  50         0.00000000
  51        -0.00000000
  52        -0.00000000
  53        -0.00000000
  54         0.00000000
  55         0.00000000
  56         0.00000000
  57        -0.00000000
  58        -0.00000000
  59        -0.00000000
  60        -0.00000000
  61         0.00000000
  62         0.00000000
  63         0.00000000
  64         0.00838553
  65         0.00181777
  66        -0.00376681
  67         0.00573226
  68        -0.01961556
  69        -0.03789386
  70        -0.00821444
  71         0.01702207
  72        -0.02590387
  73         0.08864193
  74         0.39082058
  75         0.08472011
  76        -0.17555817
  77         0.26716112
  78        -0.91421394
  79         0.00000000
  80         0.00000000
  81         0.00000000
  82         0.00000000
  83         0.00000000
  84         0.00000000
  85        -0.00000000
  86         0.00000000
  87        -0.00000000
  88         0.00000000
  89         0.00000000
  90        -0.00000000
  91         0.00000000
  92        -0.00000000
Sym=    12a  
Ene=     0.2842
Spin= Alpha
Occup=    0.00000
   1         0.00000000
   2         0.00000000
   3         0.00000000
   4         0.00000000
   5         0.00000000
   6         0.00000000
   7         0.00000000
   8         0.00000000
   9         0.00000000
  10         0.00000000
  11         0.00000000
  12         0.00000000
  13         0.00000000
  14         0.00000000
  15         0.00000000
  16         0.00000000
  17         0.00000000
  18         0.00000000
  19         0.00000000
  20         0.00000000
  21         0.00000000
  22         0.00000000
  23         0.00000000
  24         0.00000000
  25         0.00000000
  26         0.00000000
  27         0.00000000
  28         0.00000000
  29         0.00000000
  30         0.00000000
  31         0.00000000
  32         0.00000000
  33         0.00000000
  34         0.00000000
  35         0.00000000
  36         0.00000000
  37         0.00000000
  38         0.00000000
  39         0.00000000
  40         0.00000000
  41         0.00000000
  42         0.00000000
  43         0.00000000
  44         0.00000000
  45         0.00000000
  46         0.00000000
  47         0.00000000
  48         0.00000000
  49        -0.00000000
  50         0.00000000
  51         0.00000000
  52        -0.00000000
  53         0.00000000
  54         0.00000000
  55         0.00000000
  56        -0.00000000
  57        -0.00000000
  58        -0.00000000
  59         0.00000000
  60         0.00000000
  61         0.00000000
  62         0.00000000
  63         0.00000000
  64         0.00070614
  65         0.02229459
  66         0.00205171
  67        -0.00023968
  68         0.00190387
  69        -0.00319100
  70        -0.10074838
  71        -0.00927160
  72         0.00108312
  73        -0.00860351
  74         0.03291059
  75         1.03907453
  76         0.09562325
  77        -0.01117081
  78         0.08873283
  79        -0.00000000
  80         0.00000000
  81         0.00000000
  82         0.00000000
  83        -0.00000000
  84        -0.00000000
  85         0.00000000
  86         0.00000000
  87         0.00000000
  88         0.00000000
  89        -0.00000000
  90         0.00000000
  91         0.00000000
  92         0.00000000
Sym=    13a  
Ene=     0.2842
Spin= Alpha
Occup=    0.00000
   1         0.00000000
   2         0.00000000
   3         0.00000000
   4         0.00000000
   5         0.00000000
   6         0.00000000
   7         0.00000000
   8         0.00000000
   9         0.00000000
  10         0.00000000
  11         0.00000000
  12         0.00000000
  13         0.00000000
  14         0.00000000
  15         0.00000000
  16         0.00000000
  17         0.00000000
  18         0.00000000
  19         0.00000000
  20         0.00000000
  21         0.00000000
  22         0.00000000
  23         0.00000000
  24         0.00000000
  25         0.00000000
  26         0.00000000
  27         0.00000000
  28         0.00000000
  29         0.00000000
  30         0.00000000
  31         0.00000000
  32         0.00000000
  33         0.00000000
  34         0.00000000