[Molden Format]
[N_Atoms]
                    2
[Atoms] (AU)
H1          1      1           0.00000000      0.00000000      0.00000000
H2          2      1     ****************      0.00000000      0.00000000
[5D]
[7F]
[Charge] (Mulliken)
   0.0000000000000000     
   0.0000000000000000     
[GTO] (AU)
   1
   s   6
  8.264000000E+01  2.006000801E-03
  1.241000000E+01  1.534300612E-02
  2.824000000E+00  7.557903017E-02
  7.977000000E-01  2.568751025E-01
  2.581000000E-01  4.973681985E-01
  8.989000000E-02  2.961331182E-01
   s   1
  7.977000000E-01  1.000000000E+00
   s   1
  2.581000000E-01  1.000000000E+00
   s   1
  8.989000000E-02  1.000000000E+00
   s   1
  2.363000000E-02  1.000000000E+00
   p   1
  2.292000000E+00  1.000000000E+00
   p   1
  8.380000000E-01  1.000000000E+00
   p   1
  2.920000000E-01  1.000000000E+00
   p   1
  8.480000000E-02  1.000000000E+00
   d   1
  2.062000000E+00  1.000000000E+00
   d   1
  6.620000000E-01  1.000000000E+00
   d   1
  1.900000000E-01  1.000000000E+00
   f   1
  1.397000000E+00  1.000000000E+00
   f   1
  3.600000000E-01  1.000000000E+00
 
   2
   s   6
  8.264000000E+01  2.006000801E-03
  1.241000000E+01  1.534300612E-02
  2.824000000E+00  7.557903017E-02
  7.977000000E-01  2.568751025E-01
  2.581000000E-01  4.973681985E-01
  8.989000000E-02  2.961331182E-01
   s   1
  7.977000000E-01  1.000000000E+00
   s   1
  2.581000000E-01  1.000000000E+00
   s   1
  8.989000000E-02  1.000000000E+00
   s   1
  2.363000000E-02  1.000000000E+00
   p   1
  2.292000000E+00  1.000000000E+00
   p   1
  8.380000000E-01  1.000000000E+00
   p   1
  2.920000000E-01  1.000000000E+00
   p   1
  8.480000000E-02  1.000000000E+00
   d   1
  2.062000000E+00  1.000000000E+00
   d   1
  6.620000000E-01  1.000000000E+00
   d   1
  1.900000000E-01  1.000000000E+00
   f   1
  1.397000000E+00  1.000000000E+00
   f   1
  3.600000000E-01  1.000000000E+00
 
[MO]
Sym=     1a  
Ene=    -0.5000
Spin= Alpha
Occup=    1.00000
   1         1.32639739
   2        -0.02847905
   3        -0.17699125
   4        -0.16796878
   5         0.01963947
   6        -0.00000000
   7         0.00000000
   8        -0.00000000
   9        -0.00000000
  10        -0.00000000
  11        -0.00000000
  12         0.00000000
  13         0.00000000
  14         0.00000000
  15         0.00000000
  16        -0.00000000
  17         0.00000000
  18         0.00000000
  19        -0.00000000
  20         0.00000000
  21         0.00000000
  22         0.00000000
  23        -0.00000000
  24         0.00000000
  25        -0.00000000
  26        -0.00000000
  27        -0.00000000
  28         0.00000000
  29        -0.00000000
  30        -0.00000000
  31         0.00000000
  32         0.00000000
  33         0.00000000
  34        -0.00000000
  35        -0.00000000
  36         0.00000000
  37         0.00000000
  38         0.00000000
  39         0.00000000
  40         0.00000000
  41        -0.00000000
  42        -0.00000000
  43        -0.00000000
  44        -0.00000000
  45         0.00000000
  46         0.00000000
  47         0.00000000
  48         0.00000000
  49         0.00000000
  50         0.00000000
  51         0.00000000
  52         0.00000000
  53         0.00000000
  54         0.00000000
  55         0.00000000
  56         0.00000000
  57         0.00000000
  58         0.00000000
  59         0.00000000
  60         0.00000000
  61         0.00000000
  62         0.00000000
  63         0.00000000
  64         0.00000000
  65         0.00000000
  66         0.00000000
  67         0.00000000
  68         0.00000000
  69         0.00000000
  70         0.00000000
  71         0.00000000
  72         0.00000000
  73         0.00000000
  74         0.00000000
  75         0.00000000
  76         0.00000000
  77         0.00000000
  78         0.00000000
  79         0.00000000
  80         0.00000000
  81         0.00000000
  82         0.00000000
  83         0.00000000
  84         0.00000000
  85         0.00000000
  86         0.00000000
  87         0.00000000
  88         0.00000000
  89         0.00000000
  90         0.00000000
  91         0.00000000
  92         0.00000000
Sym=     2a  
Ene=    -0.5000
Spin= Alpha
Occup=    1.00000
   1         0.00000000
   2         0.00000000
   3         0.00000000
   4         0.00000000
   5         0.00000000
   6         0.00000000
   7         0.00000000
   8         0.00000000
   9         0.00000000
  10         0.00000000
  11         0.00000000
  12         0.00000000
  13         0.00000000
  14         0.00000000
  15         0.00000000
  16         0.00000000
  17         0.00000000
  18         0.00000000
  19         0.00000000
  20         0.00000000
  21         0.00000000
  22         0.00000000
  23         0.00000000
  24         0.00000000
  25         0.00000000
  26         0.00000000
  27         0.00000000
  28         0.00000000
  29         0.00000000
  30         0.00000000
  31         0.00000000
  32         0.00000000
  33         0.00000000
  34         0.00000000
  35         0.00000000
  36         0.00000000
  37         0.00000000
  38         0.00000000
  39         0.00000000
  40         0.00000000
  41         0.00000000
  42         0.00000000
  43         0.00000000
  44         0.00000000
  45         0.00000000
  46         0.00000000
  47         1.32639739
  48        -0.02847905
  49        -0.17699125
  50        -0.16796878
  51         0.01963947
  52        -0.00000000
  53         0.00000000
  54        -0.00000000
  55        -0.00000000
  56        -0.00000000
  57        -0.00000000
  58         0.00000000
  59         0.00000000
  60         0.00000000
  61         0.00000000
  62        -0.00000000
  63         0.00000000
  64         0.00000000
  65        -0.00000000
  66         0.00000000
  67         0.00000000
  68         0.00000000
  69        -0.00000000
  70         0.00000000
  71        -0.00000000
  72        -0.00000000
  73        -0.00000000
  74         0.00000000
  75        -0.00000000
  76        -0.00000000
  77         0.00000000
  78         0.00000000
  79         0.00000000
  80        -0.00000000
  81        -0.00000000
  82         0.00000000
  83         0.00000000
  84         0.00000000
  85         0.00000000
  86         0.00000000
  87        -0.00000000
  88        -0.00000000
  89        -0.00000000
  90        -0.00000000
  91         0.00000000
  92         0.00000000
Sym=     3a  
Ene=     3.0627
Spin= Alpha
Occup=    0.00000
   1         0.00000000
   2         0.00000000
   3         0.00000000
   4         0.00000000
   5         0.00000000
   6         0.00000000
   7         0.00000000
   8         0.00000000
   9         0.00000000
  10         0.00000000
  11         0.00000000
  12         0.00000000
  13         0.00000000
  14         0.00000000
  15         0.00000000
  16         0.00000000
  17         0.00000000
  18         0.00000000
  19         0.00000000
  20         0.00000000
  21         0.00000000
  22         0.00000000
  23         0.00000000
  24         0.00000000
  25         0.00000000
  26         0.00000000
  27         0.00000000
  28         0.00000000
  29         0.00000000
  30         0.00000000
  31         0.00000000
  32         0.00000000
  33         0.00000000
  34         0.00000000
  35         0.00000000
  36         0.00000000
  37         0.00000000
  38         0.00000000
  39         0.00000000
  40         0.00000000
  41         0.00000000
  42         0.00000000
  43         0.00000000
  44         0.00000000
  45         0.00000000
  46         0.00000000
  47         0.05550871
  48        -0.07410740
  49         0.14641689
  50        -0.99736960
  51         1.48078345
  52        -0.00000000
  53        -0.00000000
  54        -0.00000000
  55         0.00000000
  56         0.00000000
  57         0.00000000
  58         0.00000000
  59        -0.00000000
  60        -0.00000000
  61        -0.00000000
  62         0.00000000
  63         0.00000000
  64        -0.00000000
  65         0.00000000
  66         0.00000000
  67         0.00000000
  68        -0.00000000
  69         0.00000000
  70        -0.00000000
  71        -0.00000000
  72        -0.00000000
  73         0.00000000
  74        -0.00000000
  75         0.00000000
  76        -0.00000000
  77        -0.00000000
  78         0.00000000
  79         0.00000000
  80        -0.00000000
  81        -0.00000000
  82         0.00000000
  83        -0.00000000
  84        -0.00000000
  85        -0.00000000
  86         0.00000000
  87         0.00000000
  88         0.00000000
  89        -0.00000000
  90         0.00000000
  91         0.00000000
  92         0.00000000
Sym=     4a  
Ene=     3.0627
Spin= Alpha
Occup=    0.00000
   1         0.05550871
   2        -0.07410740
   3         0.14641689
   4        -0.99736960
   5         1.48078345
   6         0.00000000
   7        -0.00000000
   8         0.00000000
   9        -0.00000000
  10         0.00000000
  11        -0.00000000
  12         0.00000000
  13        -0.00000000
  14         0.00000000
  15        -0.00000000
  16         0.00000000
  17        -0.00000000
  18        -0.00000000
  19         0.00000000
  20         0.00000000
  21         0.00000000
  22        -0.00000000
  23        -0.00000000
  24         0.00000000
  25        -0.00000000
  26        -0.00000000
  27         0.00000000
  28         0.00000000
  29         0.00000000
  30        -0.00000000
  31        -0.00000000
  32        -0.00000000
  33         0.00000000
  34        -0.00000000
  35        -0.00000000
  36         0.00000000
  37        -0.00000000
  38        -0.00000000
  39         0.00000000
  40        -0.00000000
  41         0.00000000
  42         0.00000000
  43        -0.00000000
  44         0.00000000
  45         0.00000000
  46        -0.00000000
  47         0.00000000
  48         0.00000000
  49         0.00000000
  50         0.00000000
  51         0.00000000
  52         0.00000000
  53         0.00000000
  54         0.00000000
  55         0.00000000
  56         0.00000000
  57         0.00000000
  58         0.00000000
  59         0.00000000
  60         0.00000000
  61         0.00000000
  62         0.00000000
  63         0.00000000
  64         0.00000000
  65         0.00000000
  66         0.00000000
  67         0.00000000
  68         0.00000000
  69         0.00000000
  70         0.00000000
  71         0.00000000
  72         0.00000000
  73         0.00000000
  74         0.00000000
  75         0.00000000
  76         0.00000000
  77         0.00000000
  78         0.00000000
  79         0.00000000
  80         0.00000000
  81         0.00000000
  82         0.00000000
  83         0.00000000
  84         0.00000000
  85         0.00000000
  86         0.00000000
  87         0.00000000
  88         0.00000000
  89         0.00000000
  90         0.00000000
  91         0.00000000
  92         0.00000000
Sym=     5a  
Ene=     3.1955
Spin= Alpha
Occup=    0.00000
   1         0.00000000
   2         0.00000000
   3         0.00000000
   4         0.00000000
   5         0.00000000
   6         0.00000000
   7         0.00000000
   8         0.00000000
   9         0.00000000
  10         0.00000000
  11         0.00000000
  12         0.00000000
  13         0.00000000
  14         0.00000000
  15         0.00000000
  16         0.00000000
  17         0.00000000
  18         0.00000000
  19         0.00000000
  20         0.00000000
  21         0.00000000
  22         0.00000000
  23         0.00000000
  24         0.00000000
  25         0.00000000
  26         0.00000000
  27         0.00000000
  28         0.00000000
  29         0.00000000
  30         0.00000000
  31         0.00000000
  32         0.00000000
  33         0.00000000
  34         0.00000000
  35         0.00000000
  36         0.00000000
  37         0.00000000
  38         0.00000000
  39         0.00000000
  40         0.00000000
  41         0.00000000
  42         0.00000000
  43         0.00000000
  44         0.00000000
  45         0.00000000
  46         0.00000000
  47        -0.00000000
  48         0.00000000
  49         0.00000000
  50         0.00000000
  51        -0.00000000
  52         0.00000009
  53         0.00000000
  54        -0.01688876
  55        -0.00000043
  56        -0.00000000
  57         0.07786203
  58         0.00000146
  59         0.00000000
  60        -0.26204228
  61        -0.00000632
  62        -0.00000000
  63         1.13639760
  64         0.00000000
  65         0.00000000
  66        -0.00000000
  67        -0.00000000
  68         0.00000000
  69        -0.00000000
  70        -0.00000000
  71         0.00000000
  72         0.00000000
  73        -0.00000000
  74        -0.00000000
  75        -0.00000000
  76         0.00000000
  77         0.00000000
  78         0.00000000
  79        -0.00000000
  80         0.00000000
  81        -0.00000000
  82        -0.00000000
  83         0.00000000
  84         0.00000000
  85        -0.00000000
  86         0.00000000
  87        -0.00000000
  88         0.00000000
  89         0.00000000
  90        -0.00000000
  91        -0.00000000
  92        -0.00000000
Sym=     6a  
Ene=     3.1955
Spin= Alpha
Occup=    0.00000
   1         0.00000000
   2         0.00000000
   3         0.00000000
   4         0.00000000
   5         0.00000000
   6         0.00000000
   7         0.00000000
   8         0.00000000
   9         0.00000000
  10         0.00000000
  11         0.00000000
  12         0.00000000
  13         0.00000000
  14         0.00000000
  15         0.00000000
  16         0.00000000
  17         0.00000000
  18         0.00000000
  19         0.00000000
  20         0.00000000
  21         0.00000000
  22         0.00000000
  23         0.00000000
  24         0.00000000
  25         0.00000000
  26         0.00000000
  27         0.00000000
  28         0.00000000
  29         0.00000000
  30         0.00000000
  31         0.00000000
  32         0.00000000
  33         0.00000000
  34         0.00000000
  35         0.00000000
  36         0.00000000
  37         0.00000000
  38         0.00000000
  39         0.00000000
  40         0.00000000
  41         0.00000000
  42         0.00000000
  43         0.00000000
  44         0.00000000
  45         0.00000000
  46         0.00000000
  47        -0.00000000
  48         0.00000000
  49        -0.00000000
  50         0.00000000
  51        -0.00000000
  52         0.00000000
  53        -0.01688876
  54        -0.00000000
  55        -0.00000000
  56         0.07786203
  57         0.00000000
  58         0.00000000
  59        -0.26204228
  60        -0.00000000
  61        -0.00000000
  62         1.13639760
  63         0.00000000
  64        -0.00000000
  65         0.00000000
  66         0.00000000
  67         0.00000000
  68         0.00000000
  69         0.00000000
  70        -0.00000000
  71        -0.00000000
  72        -0.00000000
  73        -0.00000000
  74        -0.00000000
  75        -0.00000000
  76        -0.00000000
  77        -0.00000000
  78         0.00000000
  79         0.00000000
  80        -0.00000000
  81         0.00000000
  82         0.00000000
  83        -0.00000000
  84         0.00000000
  85         0.00000000
  86         0.00000000
  87        -0.00000000
  88        -0.00000000
  89        -0.00000000
  90         0.00000000
  91         0.00000000
  92         0.00000000
Sym=     7a  
Ene=     3.1955
Spin= Alpha
Occup=    0.00000
   1         0.00000000
   2         0.00000000
   3         0.00000000
   4         0.00000000
   5         0.00000000
   6         0.00000000
   7         0.00000000
   8         0.00000000
   9         0.00000000
  10         0.00000000
  11         0.00000000
  12         0.00000000
  13         0.00000000
  14         0.00000000
  15         0.00000000
  16         0.00000000
  17         0.00000000
  18         0.00000000
  19         0.00000000
  20         0.00000000
  21         0.00000000
  22         0.00000000
  23         0.00000000
  24         0.00000000
  25         0.00000000
  26         0.00000000
  27         0.00000000
  28         0.00000000
  29         0.00000000
  30         0.00000000
  31         0.00000000
  32         0.00000000
  33         0.00000000
  34         0.00000000
  35         0.00000000
  36         0.00000000
  37         0.00000000
  38         0.00000000
  39         0.00000000
  40         0.00000000
  41         0.00000000
  42         0.00000000
  43         0.00000000
  44         0.00000000
  45         0.00000000
  46         0.00000000
  47         0.00000000
  48        -0.00000000
  49         0.00000000
  50         0.00000000
  51        -0.00000000
  52        -0.01688876
  53         0.00000000
  54        -0.00000009
  55         0.07786203
  56        -0.00000000
  57         0.00000043
  58        -0.26204228
  59         0.00000000
  60        -0.00000146
  61         1.13639760
  62        -0.00000000
  63         0.00000632
  64         0.00000000
  65         0.00000000
  66        -0.00000000
  67        -0.00000000
  68        -0.00000000
  69        -0.00000000
  70         0.00000000
  71         0.00000000
  72         0.00000000
  73         0.00000000
  74         0.00000000
  75         0.00000000
  76         0.00000000
  77        -0.00000000
  78        -0.00000000
  79         0.00000000
  80        -0.00000000
  81         0.00000000
  82        -0.00000000
  83        -0.00000000
  84        -0.00000000
  85        -0.00000000
  86        -0.00000000
  87        -0.00000000
  88        -0.00000000
  89         0.00000000
  90         0.00000000
  91         0.00000000
  92         0.00000000
Sym=     8a  
Ene=     3.1955
Spin= Alpha
Occup=    0.00000
   1         0.00000000
   2        -0.00000000
   3         0.00000000
   4        -0.00000000
   5         0.00000000
   6        -0.00000000
   7        -0.00036296
   8        -0.01688486
   9         0.00000000
  10         0.00167334
  11         0.07784405
  12         0.00000000
  13        -0.00563157
  14        -0.26198176
  15        -0.00000000
  16         0.02442240
  17         1.13613513
  18        -0.00000000
  19         0.00000000
  20         0.00000000
  21        -0.00000000
  22         0.00000000
  23        -0.00000000
  24        -0.00000000
  25        -0.00000000
  26         0.00000000
  27        -0.00000000
  28        -0.00000000
  29         0.00000000
  30        -0.00000000
  31        -0.00000000
  32        -0.00000000
  33         0.00000000
  34         0.00000000
  35         0.00000000
  36         0.00000000
  37         0.00000000
  38         0.00000000
  39        -0.00000000
  40         0.00000000
  41        -0.00000000
  42        -0.00000000
  43        -0.00000000
  44         0.00000000
  45        -0.00000000
  46        -0.00000000
  47         0.00000000
  48         0.00000000
  49         0.00000000
  50         0.00000000
  51         0.00000000
  52         0.00000000
  53         0.00000000
  54         0.00000000
  55         0.00000000
  56         0.00000000
  57         0.00000000
  58         0.00000000
  59         0.00000000
  60         0.00000000
  61         0.00000000
  62         0.00000000
  63         0.00000000
  64         0.00000000
  65         0.00000000
  66         0.00000000
  67         0.00000000
  68         0.00000000
  69         0.00000000
  70         0.00000000
  71         0.00000000
  72         0.00000000
  73         0.00000000
  74         0.00000000
  75         0.00000000
  76         0.00000000
  77         0.00000000
  78         0.00000000
  79         0.00000000
  80         0.00000000
  81         0.00000000
  82         0.00000000
  83         0.00000000
  84         0.00000000
  85         0.00000000
  86         0.00000000
  87         0.00000000
  88         0.00000000
  89         0.00000000
  90         0.00000000
  91         0.00000000
  92         0.00000000
Sym=     9a  
Ene=     3.1955
Spin= Alpha
Occup=    0.00000
   1         0.00000000
   2        -0.00000000
   3        -0.00000000
   4         0.00000000
   5        -0.00000000
   6         0.00000000
   7        -0.01688486
   8         0.00036296
   9        -0.00000000
  10         0.07784405
  11        -0.00167334
  12        -0.00000000
  13        -0.26198176
  14         0.00563157
  15        -0.00000000
  16         1.13613513
  17        -0.02442240
  18         0.00000000
  19        -0.00000000
  20         0.00000000
  21         0.00000000
  22        -0.00000000
  23         0.00000000
  24         0.00000000
  25        -0.00000000
  26        -0.00000000
  27        -0.00000000
  28         0.00000000
  29         0.00000000
  30        -0.00000000
  31        -0.00000000
  32         0.00000000
  33         0.00000000
  34        -0.00000000
  35         0.00000000
  36         0.00000000
  37        -0.00000000
  38        -0.00000000
  39        -0.00000000
  40        -0.00000000
  41         0.00000000
  42        -0.00000000
  43        -0.00000000
  44        -0.00000000
  45         0.00000000
  46         0.00000000
  47         0.00000000
  48         0.00000000
  49         0.00000000
  50         0.00000000
  51         0.00000000
  52         0.00000000
  53         0.00000000
  54         0.00000000
  55         0.00000000
  56         0.00000000
  57         0.00000000
  58         0.00000000
  59         0.00000000
  60         0.00000000
  61         0.00000000
  62         0.00000000
  63         0.00000000
  64         0.00000000
  65         0.00000000
  66         0.00000000
  67         0.00000000
  68         0.00000000
  69         0.00000000
  70         0.00000000
  71         0.00000000
  72         0.00000000
  73         0.00000000
  74         0.00000000
  75         0.00000000
  76         0.00000000
  77         0.00000000
  78         0.00000000
  79         0.00000000
  80         0.00000000
  81         0.00000000
  82         0.00000000
  83         0.00000000
  84         0.00000000
  85         0.00000000
  86         0.00000000
  87         0.00000000
  88         0.00000000
  89         0.00000000
  90         0.00000000
  91         0.00000000
  92         0.00000000
Sym=    10a  
Ene=     3.1955
Spin= Alpha
Occup=    0.00000
   1        -0.00000000
   2         0.00000000
   3         0.00000000
   4         0.00000000
   5        -0.00000000
   6        -0.01688876
   7        -0.00000000
   8         0.00000000
   9         0.07786203
  10         0.00000000
  11         0.00000000
  12        -0.26204228
  13        -0.00000000
  14         0.00000000
  15         1.13639760
  16         0.00000000
  17        -0.00000000
  18         0.00000000
  19         0.00000000
  20        -0.00000000
  21        -0.00000000
  22         0.00000000
  23         0.00000000
  24        -0.00000000
  25         0.00000000
  26        -0.00000000
  27        -0.00000000
  28        -0.00000000
  29        -0.00000000
  30         0.00000000
  31        -0.00000000
  32        -0.00000000
  33         0.00000000
  34         0.00000000
  35         0.00000000
  36        -0.00000000
  37        -0.00000000
  38        -0.00000000
  39         0.00000000
  40         0.00000000
  41        -0.00000000
  42        -0.00000000
  43         0.00000000
  44         0.00000000
  45         0.00000000
  46        -0.00000000
  47         0.00000000
  48         0.00000000
  49         0.00000000
  50         0.00000000
  51         0.00000000
  52         0.00000000
  53         0.00000000
  54         0.00000000
  55         0.00000000
  56         0.00000000
  57         0.00000000
  58         0.00000000
  59         0.00000000
  60         0.00000000
  61         0.00000000
  62         0.00000000
  63         0.00000000
  64         0.00000000
  65         0.00000000
  66         0.00000000
  67         0.00000000
  68         0.00000000
  69         0.00000000
  70         0.00000000
  71         0.00000000
  72         0.00000000
  73         0.00000000
  74         0.00000000
  75         0.00000000
  76         0.00000000
  77         0.00000000
  78         0.00000000
  79         0.00000000
  80         0.00000000
  81         0.00000000
  82         0.00000000
  83         0.00000000
  84         0.00000000
  85         0.00000000
  86         0.00000000
  87         0.00000000
  88         0.00000000
  89         0.00000000
  90         0.00000000
  91         0.00000000
  92         0.00000000
Sym=    11a  
Ene=     3.4670
Spin= Alpha
Occup=    0.00000
   1         0.00000000
   2         0.00000000
   3         0.00000000
   4         0.00000000
   5         0.00000000
   6         0.00000000
   7         0.00000000
   8         0.00000000
   9         0.00000000
  10         0.00000000
  11         0.00000000
  12         0.00000000
  13         0.00000000
  14         0.00000000
  15         0.00000000
  16         0.00000000
  17         0.00000000
  18         0.00000000
  19         0.00000000
  20         0.00000000
  21         0.00000000
  22         0.00000000
  23         0.00000000
  24         0.00000000
  25         0.00000000
  26         0.00000000
  27         0.00000000
  28         0.00000000
  29         0.00000000
  30         0.00000000
  31         0.00000000
  32         0.00000000
  33         0.00000000
  34         0.00000000
  35         0.00000000
  36         0.00000000
  37         0.00000000
  38         0.00000000
  39         0.00000000
  40         0.00000000
  41         0.00000000
  42         0.00000000
  43         0.00000000
  44         0.00000000
  45         0.00000000
  46         0.00000000
  47        -0.39246767
  48         0.39177877
  49        -1.88260635
  50         2.79808144
  51        -0.84083054
  52        -0.00000000
  53        -0.00000000
  54         0.00000000
  55         0.00000000
  56         0.00000000
  57         0.00000000
  58         0.00000000
  59        -0.00000000
  60        -0.00000000
  61         0.00000000
  62        -0.00000000
  63         0.00000000
  64        -0.00000000
  65         0.00000000
  66        -0.00000000
  67         0.00000000
  68         0.00000000
  69         0.00000000
  70        -0.00000000
  71         0.00000000
  72        -0.00000000
  73        -0.00000000
  74        -0.00000000
  75        -0.00000000
  76        -0.00000000
  77        -0.00000000
  78        -0.00000000
  79        -0.00000000
  80         0.00000000
  81         0.00000000
  82         0.00000000
  83        -0.00000000
  84         0.00000000
  85         0.00000000
  86         0.00000000
  87        -0.00000000
  88        -0.00000000
  89        -0.00000000
  90        -0.00000000
  91        -0.00000000
  92        -0.00000000
Sym=    12a  
Ene=     3.4670
Spin= Alpha
Occup=    0.00000
   1        -0.39246767
   2         0.39177877
   3        -1.88260635
   4         2.79808144
   5        -0.84083054
   6        -0.00000000
   7        -0.00000000
   8        -0.00000000
   9         0.00000000
  10         0.00000000
  11         0.00000000
  12        -0.00000000
  13        -0.00000000
  14         0.00000000
  15         0.00000000
  16        -0.00000000
  17         0.00000000
  18        -0.00000000
  19         0.00000000
  20        -0.00000000
  21         0.00000000
  22         0.00000000
  23         0.00000000
  24        -0.00000000
  25         0.00000000
  26         0.00000000
  27        -0.00000000
  28        -0.00000000
  29         0.00000000
  30        -0.00000000
  31        -0.00000000
  32         0.00000000
  33        -0.00000000
  34         0.00000000
  35        -0.00000000
  36         0.00000000
  37        -0.00000000
  38         0.00000000
  39         0.00000000
  40         0.00000000
  41        -0.00000000
  42         0.00000000
  43        -0.00000000
  44         0.00000000
  45        -0.00000000
  46         0.00000000
  47         0.00000000
  48         0.00000000
  49         0.00000000
  50         0.00000000
  51         0.00000000
  52         0.00000000
  53         0.00000000
  54         0.00000000
  55         0.00000000
  56         0.00000000
  57         0.00000000
  58         0.00000000
  59         0.00000000
  60         0.00000000
  61         0.00000000
  62         0.00000000
  63         0.00000000
  64         0.00000000
  65         0.00000000
  66         0.00000000
  67         0.00000000
  68         0.00000000
  69         0.00000000
  70         0.00000000
  71         0.00000000
  72         0.00000000
  73         0.00000000
  74         0.00000000
  75         0.00000000
  76         0.00000000
  77         0.00000000
  78         0.00000000
  79         0.00000000
  80         0.00000000
  81         0.00000000
  82         0.00000000
  83         0.00000000
  84         0.00000000
  85         0.00000000
  86         0.00000000
  87         0.00000000
  88         0.00000000
  89         0.00000000
  90         0.00000000
  91         0.00000000
  92         0.00000000
Sym=    13a  
Ene=     3.6352
Spin= Alpha
Occup=    0.00000
   1         0.00000000
   2         0.00000000
   3         0.00000000
   4         0.00000000
   5         0.00000000
   6         0.00000000
   7         0.00000000
   8         0.00000000
   9         0.00000000
  10         0.00000000
  11         0.00000000
  12         0.00000000
  13         0.00000000
  14         0.00000000
  15         0.00000000
  16         0.00000000
  17         0.00000000
  18         0.00000000
  19         0.00000000
  20         0.00000000
  21         0.00000000
  22         0.00000000
  23         0.00000000
  24         0.00000000
  25         0.00000000
  26         0.00000000
  27         0.00000000
  28         0.00000000
  29         0.00000000
  30         0.00000000
  31         0.00000000
  32         0.00000000
  33         0.00000000
  34         0.00000000