   This run of MOLCAS is using the pymolcas driver

                             OPE
                             OPE          NMOL  CASOP  ENMOLC A   SO
                 OPE        NMOLC        AS  OP EN  MO LC     AS  OP
                OPENM       OL CA        SO  PE NM  OL CA     SOP EN
                OP EN      MO   LC       AS  OP ENMOL  CASO   PENMOL
                OP  EN     MO   LC       AS  OP EN     MO     LC ASO
               OP   E  NMOL  C  AS       OP  EN MO     LC     AS  OP
               OP  E   NMO   LC AS        OPEN  MO     LCASOP EN   M
               O  PEN   MO  LCA  SO
            OPE   NMO   L   CAS    OP
        OPENMOL  CASOP     ENMOL   CASOPE
     OPENMOLCA   SOPENMOLCASOPEN   MOLCASOPE
    OPENMOLCAS   OP           EN   MOL    CAS
    OPENMOLCAS       OP  ENM        O     LCA
    OPENMOLCAS    OPEN  MOLCASO     P  E  NMO
    OPENMOLCAS     OP               E  N  MOL
    OPENMOLCA   SO           PENM   O  L  CAS    OPEN    MO    LCAS
    OPENMOLCA   SOP           ENM   O  L  CAS   OP  EN  MOLC  AS   O
    OPENMOLCA   SOPE           NM      O  LCA   S      OP  EN MO
    OPENMOLC                AS         O  PEN   M      OL  CA  SOPE
    OPENMO        LCASOPE  NMOL        C  ASO   P      ENMOLC     AS
    OPE     NMO      LCA  SO     P     E   NM   OL  CA SO  PE N   MO
          OPENMOLCA            SOPE   NMO        LCAS  O    P  ENMO
     OPENMOLCASOPENMOLCASOPENMOLCASOPENMOLCA
        OPENMOLCASOPENMOLCASOPENMOLCASOPE
            OPENMOLCASOPENMOLCASOPENM
               OPENMOLCASOPENMOLCA        version: 24.02
                   OPENMOLCASO
                       OPE                tag: 428-g03afa2e9a

 OpenMolcas is free software; you can redistribute it and/or modify it
 under the terms of the GNU Lesser General Public License version 2.1.
 OpenMolcas is distributed in the hope that it will be useful, but it
 is provided "as is" and without any express or implied warranties.
 For more details see the full text of the license in the file
 LICENSE or in <http://www.gnu.org/licenses/>.

                 Copyright (C) The OpenMolcas Authors
           For the author list and the recommended citation,
                   consult the file CONTRIBUTORS.md

           *************************************************
           * pymolcas version py2.28                       *
           *   build c4a6d18ded8cb6cad61d2372a9abd97c      *
           *   (after the EMIL interpreter by V. Veryazov) *
           *************************************************

configuration info
------------------
Host name: DESKTOP-ET1S6F4 (Linux)
C Compiler ID: GNU
C flags: -std=gnu99 -fopenmp
Fortran Compiler ID: GNU
Fortran flags: -fno-aggressive-loop-optimizations -cpp -fdefault-integer-8 -fopenmp
Definitions: _WARNING_WORKAROUND_;_MOLCAS_;_I8_;_LINUX_
Parallel: OFF (GA=OFF)


   ----------------------------------------------------------------------
  |
  |           Project: h2_potential
  |    Submitted from: /home/kenya/molcas_test/0507
  |      Scratch area: /tmp/h2_potential
  |   Save outputs to: /home/kenya/molcas_test/0507
  |            Molcas: /home/kenya/OpenMolcas/builds/gnu_dev_omp
  |
  | Scratch area is NOT empty
  |
  |    MOLCAS_DRIVER = /home/kenya/OpenMolcas/builds/gnu_dev_omp/pymolcas
  |    MOLCAS_NPROCS = 1
  |    MOLCAS_SOURCE = /home/kenya/OpenMolcas
  | MOLCAS_STRUCTURE = 0
  |
   ----------------------------------------------------------------------

++ ---------   Input file   ---------

&GATEWAY
 Coord = 2
 Angstrom
 H 0.0 0.0 0.0
 H 1000000000000.0 0.0 0.0
 Basis = aug-cc-pVQZ
 Group = C1
 NoCD

&SEWARD

&SCF
 FILEORB = h2_potential.ScfOrb

-- ----------------------------------

*** symbolic link created: INPORB -> h2_potential.ScfOrb
--- Start Module: gateway at Tue May  7 14:51:41 2024 ---

()()()()()()()()()()()()()()()()()()()()()()()()()()()()()()()()()()()()()()()()()()()()()()()()()()

                                              &GATEWAY

                                   only a single process is used
                       available to each process: 2.0 GB of memory, 1 thread
                                             pid: 55127
()()()()()()()()()()()()()()()()()()()()()()()()()()()()()()()()()()()()()()()()()()()()()()()()()()


++    Symmetry information:
      ---------------------

                    Character Table for C1 

                             E  
                    a        1  x, y, xy, Rz, z, xz, Ry, yz, Rx, I
--


++    Basis set information:
      ----------------------


      Basis set label: H.AUG-CC-PVQZ.........

      Electronic valence basis set:
      ------------------
      Associated Effective Charge   1.000000 au
      Associated Actual Charge      1.000000 au
      Nuclear Model: Point charge

      Shell  nPrim  nBasis  Cartesian Spherical Contaminant
         s       7       5        X                  
         p       4       4        X                  
         d       3       3                 X         
         f       2       2                 X         
--


++    Molecular structure info:
      -------------------------

                    ************************************************ 
                    **** Cartesian Coordinates / Bohr, Angstrom **** 
                    ************************************************ 

     Center  Label                x              y              z                     x              y              z
        1      H1               0.000000       0.000000       0.000000              0.000000       0.000000       0.000000
        2      H2        ***************       0.000000       0.000000       ***************       0.000000       0.000000
--


            Nuclear Potential Energy              0.00000000 au

--- Stop Module: gateway at Tue May  7 14:51:41 2024 /rc=_RC_ALL_IS_WELL_ ---
*** files: xmldump
    saved to directory /home/kenya/molcas_test/0507

*** symbolic link created: INPORB -> h2_potential.ScfOrb
--- Start Module: seward at Tue May  7 14:51:41 2024 ---

()()()()()()()()()()()()()()()()()()()()()()()()()()()()()()()()()()()()()()()()()()()()()()()()()()

                                              &SEWARD

                                   only a single process is used
                       available to each process: 2.0 GB of memory, 1 thread
                                             pid: 55131
()()()()()()()()()()()()()()()()()()()()()()()()()()()()()()()()()()()()()()()()()()()()()()()()()()

               SEWARD will generate:
                  Multipole Moment integrals up to order  2
                  Kinetic Energy integrals
                  Nuclear Attraction integrals (point charge)
                  One-Electron Hamiltonian integrals
                  Velocity integrals
                  Orbital angular momentum around (*******  0.0000  0.0000 )
                  Velocity quadrupole around (*******  0.0000  0.0000 )
                  Two-Electron Repulsion integrals

                   Integrals are discarded if absolute value <: 1.00E-14
                   Integral cutoff threshold is set to       <: 1.00E-16

            Nuclear Potential Energy              0.00000000 au


      Basis set specifications :
      Symmetry species         a  
      Basis functions           92


      Input file to MOLDEN was generated!

--- Stop Module: seward at Tue May  7 14:51:42 2024 /rc=_RC_ALL_IS_WELL_ ---
*** files: h2_potential.GssOrb h2_potential.guessorb.molden xmldump
    saved to directory /home/kenya/molcas_test/0507

*** symbolic link created: INPORB -> h2_potential.ScfOrb
--- Start Module: scf at Tue May  7 14:51:42 2024 ---

()()()()()()()()()()()()()()()()()()()()()()()()()()()()()()()()()()()()()()()()()()()()()()()()()()

                                                &SCF

                                   only a single process is used
                       available to each process: 2.0 GB of memory, 1 thread
                                             pid: 55149
()()()()()()()()()()()()()()()()()()()()()()()()()()()()()()()()()()()()()()()()()()()()()()()()()()

++    Input section:
      --------------

      Header of the integral files:
      
       Integrals generated by Gateway/Seward, Tue May  7 14:51:41 2024


      Cartesian coordinates in Angstrom:
      -----------------------------------------------------
      No.  Label        X            Y            Z        
      -----------------------------------------------------
       1   H1         0.00000000   0.00000000   0.00000000
       2   H2      *************   0.00000000   0.00000000
      -----------------------------------------------------
      Nuclear repulsion energy =    0.00000000
--

++    Orbital specifications:
      -----------------------

      Symmetry species               1
                                     a
      Frozen orbitals                0
      Occupied orbitals              1
      Secondary orbitals            91
      Deleted orbitals               0
      Total number of orbitals      92
      Number of basis functions     92
--

      Molecular charge                           0.000

++    Optimization specifications:
      ----------------------------

      SCF Algorithm: Conventional
      Minimized density differences are used
      Number of density matrices in core                 5
      Maximum number of NDDO SCF iterations            400
      Maximum number of HF SCF iterations              400
      Threshold for SCF energy change             1.00E-09
      Threshold for density matrix                1.00E-04
      Threshold for Fock matrix                   1.50E-04
      Threshold for linear dependence             1.00E-09
      Threshold at which DIIS is turned on        1.50E-01
      Maximum depth in the DIIS procedure                5
      Maximum depth in the BFGS Hessian update          30
      Threshold at which QNR/C2DIIS is turned on  7.50E-02
      Threshold for Norm(delta) (QNR/C2DIIS)      1.00E-03
      All orbitals punched on: SCFORB
--

      Input vectors read from INPORB
      Orbital file label: * SCF orbitals


++ Convergence information
                                   SCF        iterations: Energy and convergence statistics

Iter     Tot. SCF        One-elec.       Two-elec.     Energy      Max Dij or  Max Fij      DNorm      TNorm      AccCon     Time
         Energy          Energy          Energy        Change      Delta Norm                                                in Sec.
   1    -0.375019670    -0.999896643     0.624876973   0.00E+00    0.00E+00    1.24E-01*    2.00E+00   8.18E+00   None         0.
   2    -0.375019670    -0.999896643     0.624876973   1.15E-14*   1.11E-01*   6.20E-02*    2.00E+00   8.18E+00   EDIIS        0.
   3    -0.452436997    -0.977461084     0.525024087  -7.74E-02*   1.93E-01*   7.97E-02*    6.86E-01   7.51E+00   c2DIIS       0.
   4    -0.486371257    -0.901809066     0.415437809  -3.39E-02*   5.33E-02*   1.37E-02*    4.60E-01   6.63E+00   c2DIIS       0.
   5    -0.487759575    -0.885548562     0.397788986  -1.39E-03*   6.22E-03*   2.22E-03*    1.58E-01   6.48E+00   QNRc2DIIS    0.
   6    -0.487801458    -0.884734351     0.396932893  -4.19E-05*   3.93E-03*   6.92E-04*    8.92E-03   6.47E+00   QNRc2DIIS    0.
   7    -0.487808114    -0.883921569     0.396113455  -6.66E-06*   2.04E-05    1.18E-05     8.97E-04   6.47E+00   QNRc2DIIS    0.
   8    -0.487808114    -0.883911248     0.396103134  -5.37E-10    2.17E-06    8.42E-07     1.84E-05   6.47E+00   QNRc2DIIS    0.

       Convergence after   8 Macro Iterations
--

 *****************************************************************************************************************************
 *                                                                                                                           *
 *                                             SCF/KS-DFT Program, Final results                                             *
 *                                                                                                                           *
 *                                                                                                                           *
 *                                                                                                                           *
 *                                                       Final Results                                                       *
 *                                                                                                                           *
 *****************************************************************************************************************************

::    Total SCF energy                                 -0.4878081144
      One-electron energy                              -0.8839112485
      Two-electron energy                               0.3961031340
      Nuclear repulsion energy                          0.0000000000
      Kinetic energy (interpolated)                     0.4882549348
      Virial theorem                                    0.9990848626
      Total spin, S(S+1)                                0.0000000000
      Total spin, S                                     0.0000000000
      Max non-diagonal density matrix element           0.0000000000
      Max non-diagonal Fock matrix element              0.0000003784


      All orbitals with orbital energies smaller than  E(LUMO)+0.5 are printed

++    Molecular orbitals:
      -------------------

      Title: SCF orbitals

      Molecular orbitals for symmetry species 1: a  

          Orbital            1         2         3         4         5         6         7         8         9        10    
          Energy           -0.4999   -0.1244   -0.1010   -0.1010   -0.1010   -0.0459    0.0850    0.2234    0.2842    0.2842
          Occ. No.          2.0000    0.0000    0.0000    0.0000    0.0000    0.0000    0.0000    0.0000    0.0000    0.0000

        1 H1     1s         0.0000    0.0000    0.0000    0.0000    0.0000   -0.6757    0.0000    0.2334    0.0000    0.0000
        2 H1     *s         0.0000    0.0000    0.0000    0.0000    0.0000    0.0177    0.0000    0.1045    0.0000    0.0000
        3 H1     *s         0.0000    0.0000    0.0000    0.0000    0.0000    0.0599    0.0000   -0.3513    0.0000    0.0000
        4 H1     *s         0.0000    0.0000    0.0000    0.0000    0.0000   -0.1851    0.0000    1.2436    0.0000    0.0000
        5 H1     *s         0.0000    0.0000    0.0000    0.0000    0.0000   -0.3439    0.0000   -1.4898    0.0000    0.0000
        6 H1     *px        0.0000    0.0000    0.0000    0.0000    0.0000    0.0000    0.0000    0.0000    0.0000    0.0000
        7 H1     *px        0.0000    0.0000    0.0000    0.0000    0.0000    0.0000    0.0000   -0.0000    0.0000    0.0000
        8 H1     *px        0.0000    0.0000    0.0000    0.0000    0.0000   -0.0000    0.0000    0.0000    0.0000    0.0000
        9 H1     *px        0.0000    0.0000    0.0000    0.0000    0.0000   -0.0000    0.0000   -0.0000    0.0000    0.0000
       10 H1     *py        0.0000    0.0000    0.0000    0.0000    0.0000    0.0000    0.0000   -0.0000    0.0000    0.0000
       11 H1     *py        0.0000    0.0000    0.0000    0.0000    0.0000   -0.0000    0.0000   -0.0000    0.0000    0.0000
       12 H1     *py        0.0000    0.0000    0.0000    0.0000    0.0000    0.0000    0.0000   -0.0000    0.0000    0.0000
       13 H1     *py        0.0000    0.0000    0.0000    0.0000    0.0000   -0.0000    0.0000   -0.0000    0.0000    0.0000
       14 H1     *pz        0.0000    0.0000    0.0000    0.0000    0.0000    0.0000    0.0000    0.0000    0.0000    0.0000
       15 H1     *pz        0.0000    0.0000    0.0000    0.0000    0.0000   -0.0000    0.0000   -0.0000    0.0000    0.0000
       16 H1     *pz        0.0000    0.0000    0.0000    0.0000    0.0000    0.0000    0.0000   -0.0000    0.0000    0.0000
       17 H1     *pz        0.0000    0.0000    0.0000    0.0000    0.0000    0.0000    0.0000   -0.0000    0.0000    0.0000
       18 H1     *d2-       0.0000    0.0000    0.0000    0.0000    0.0000   -0.0000    0.0000    0.0000    0.0000    0.0000
       19 H1     *d2-       0.0000    0.0000    0.0000    0.0000    0.0000   -0.0000    0.0000   -0.0000    0.0000    0.0000
       20 H1     *d2-       0.0000    0.0000    0.0000    0.0000    0.0000    0.0000    0.0000    0.0000    0.0000    0.0000
       21 H1     *d1-       0.0000    0.0000    0.0000    0.0000    0.0000   -0.0000    0.0000    0.0000    0.0000    0.0000
       22 H1     *d1-       0.0000    0.0000    0.0000    0.0000    0.0000    0.0000    0.0000   -0.0000    0.0000    0.0000
       23 H1     *d1-       0.0000    0.0000    0.0000    0.0000    0.0000    0.0000    0.0000    0.0000    0.0000    0.0000
       24 H1     *d0        0.0000    0.0000    0.0000    0.0000    0.0000    0.0000    0.0000   -0.0000    0.0000    0.0000
       25 H1     *d0        0.0000    0.0000    0.0000    0.0000    0.0000   -0.0000    0.0000    0.0000    0.0000    0.0000
       26 H1     *d0        0.0000    0.0000    0.0000    0.0000    0.0000    0.0000    0.0000   -0.0000    0.0000    0.0000
       27 H1     *d1+       0.0000    0.0000    0.0000    0.0000    0.0000   -0.0000    0.0000    0.0000    0.0000    0.0000
       28 H1     *d1+       0.0000    0.0000    0.0000    0.0000    0.0000    0.0000    0.0000   -0.0000    0.0000    0.0000
       29 H1     *d1+       0.0000    0.0000    0.0000    0.0000    0.0000    0.0000    0.0000    0.0000    0.0000    0.0000
       30 H1     *d2+       0.0000    0.0000    0.0000    0.0000    0.0000    0.0000    0.0000   -0.0000    0.0000    0.0000
       31 H1     *d2+       0.0000    0.0000    0.0000    0.0000    0.0000    0.0000    0.0000    0.0000    0.0000    0.0000
       32 H1     *d2+       0.0000    0.0000    0.0000    0.0000    0.0000   -0.0000    0.0000   -0.0000    0.0000    0.0000
       33 H1     *f3-       0.0000    0.0000    0.0000    0.0000    0.0000    0.0000    0.0000    0.0000    0.0000    0.0000
       34 H1     *f3-       0.0000    0.0000    0.0000    0.0000    0.0000   -0.0000    0.0000    0.0000    0.0000    0.0000
       35 H1     *f2-       0.0000    0.0000    0.0000    0.0000    0.0000    0.0000    0.0000    0.0000    0.0000    0.0000
       36 H1     *f2-       0.0000    0.0000    0.0000    0.0000    0.0000   -0.0000    0.0000   -0.0000    0.0000    0.0000
       37 H1     *f1-       0.0000    0.0000    0.0000    0.0000    0.0000    0.0000    0.0000   -0.0000    0.0000    0.0000
       38 H1     *f1-       0.0000    0.0000    0.0000    0.0000    0.0000   -0.0000    0.0000    0.0000    0.0000    0.0000
       39 H1     *f0        0.0000    0.0000    0.0000    0.0000    0.0000    0.0000    0.0000   -0.0000    0.0000    0.0000
       40 H1     *f0        0.0000    0.0000    0.0000    0.0000    0.0000   -0.0000    0.0000    0.0000    0.0000    0.0000
       41 H1     *f1+       0.0000    0.0000    0.0000    0.0000    0.0000    0.0000    0.0000    0.0000    0.0000    0.0000
       42 H1     *f1+       0.0000    0.0000    0.0000    0.0000    0.0000    0.0000    0.0000   -0.0000    0.0000    0.0000
       43 H1     *f2+       0.0000    0.0000    0.0000    0.0000    0.0000   -0.0000    0.0000    0.0000    0.0000    0.0000
       44 H1     *f2+       0.0000    0.0000    0.0000    0.0000    0.0000    0.0000    0.0000   -0.0000    0.0000    0.0000
       45 H1     *f3+       0.0000    0.0000    0.0000    0.0000    0.0000    0.0000    0.0000    0.0000    0.0000    0.0000
       46 H1     *f3+       0.0000    0.0000    0.0000    0.0000    0.0000    0.0000    0.0000   -0.0000    0.0000    0.0000
       47 H2     1s         1.0007   -0.3766   -0.0000   -0.0000   -0.0000   -0.0000    0.8756   -0.0000    0.0000   -0.0000
       48 H2     *s        -0.0008   -0.0106    0.0000    0.0000    0.0000   -0.0000   -0.1718   -0.0000    0.0000    0.0000
       49 H2     *s         0.0018   -0.1070    0.0000    0.0000    0.0000   -0.0000    1.0799   -0.0000    0.0000   -0.0000
       50 H2     *s        -0.0045   -0.0791    0.0000    0.0000    0.0000   -0.0000   -2.8076   -0.0000   -0.0000    0.0000
       51 H2     *s         0.0041    1.1609   -0.0000    0.0000   -0.0000   -0.0000    1.1990   -0.0000    0.0000   -0.0000
       52 H2     *px       -0.0000   -0.0000   -0.0008    0.0000   -0.0010   -0.0000    0.0000   -0.0000    0.0000    0.0000
       53 H2     *px        0.0000   -0.0000    0.0255   -0.0000    0.0328   -0.0000   -0.0000   -0.0000   -0.0000   -0.0000
       54 H2     *px       -0.0000    0.0000    0.0203   -0.0000    0.0262   -0.0000    0.0000   -0.0000    0.0000    0.0000
       55 H2     *px        0.0000    0.0000    0.5933   -0.0007    0.7631   -0.0000    0.0000   -0.0000   -0.0000    0.0000
       56 H2     *py        0.0000   -0.0000   -0.0000   -0.0013   -0.0000   -0.0000    0.0000   -0.0000    0.0000    0.0000
       57 H2     *py       -0.0000    0.0000    0.0000    0.0415    0.0000   -0.0000   -0.0000   -0.0000   -0.0000   -0.0000
       58 H2     *py        0.0000    0.0000    0.0000    0.0331    0.0000   -0.0000    0.0000   -0.0000    0.0000    0.0000
       59 H2     *py        0.0000    0.0000    0.0003    0.9666    0.0006   -0.0000   -0.0000   -0.0000   -0.0000    0.0000
       60 H2     *pz        0.0000   -0.0000   -0.0010   -0.0000    0.0008   -0.0000   -0.0000   -0.0000    0.0000   -0.0000
       61 H2     *pz        0.0000    0.0000    0.0328    0.0000   -0.0255   -0.0000    0.0000   -0.0000    0.0000    0.0000
       62 H2     *pz       -0.0000   -0.0000    0.0262    0.0000   -0.0203   -0.0000   -0.0000   -0.0000   -0.0000    0.0000
       63 H2     *pz        0.0000    0.0000    0.7631    0.0001   -0.5933   -0.0000   -0.0000   -0.0000   -0.0000   -0.0000
       64 H2     *d2-       0.0000   -0.0000   -0.0000   -0.0000    0.0000   -0.0000   -0.0000   -0.0000   -0.0012   -0.0001
       65 H2     *d2-      -0.0000    0.0000    0.0000    0.0000   -0.0000   -0.0000   -0.0000   -0.0000    0.0053    0.0003
       66 H2     *d2-       0.0000   -0.0000   -0.0000   -0.0000    0.0000   -0.0000    0.0000   -0.0000   -0.0542   -0.0033
       67 H2     *d1-      -0.0000   -0.0000    0.0000    0.0000   -0.0000   -0.0000    0.0000   -0.0000   -0.0022    0.0207
       68 H2     *d1-       0.0000    0.0000   -0.0000   -0.0000   -0.0000   -0.0000   -0.0000   -0.0000    0.0098   -0.0936
       69 H2     *d1-      -0.0000   -0.0000   -0.0000    0.0000    0.0000   -0.0000    0.0000   -0.0000   -0.1011    0.9648
       70 H2     *d0        0.0000    0.0000   -0.0000   -0.0000    0.0000   -0.0000   -0.0000   -0.0000   -0.0151    0.0047
       71 H2     *d0        0.0000    0.0000    0.0000   -0.0000   -0.0000   -0.0000    0.0000   -0.0000    0.0684   -0.0211
       72 H2     *d0       -0.0000   -0.0000   -0.0000    0.0000    0.0000   -0.0000    0.0000   -0.0000   -0.7051    0.2178
       73 H2     *d1+       0.0000   -0.0000   -0.0000    0.0000   -0.0000   -0.0000    0.0000   -0.0000    0.0010   -0.0020
       74 H2     *d1+      -0.0000    0.0000    0.0000   -0.0000    0.0000   -0.0000   -0.0000   -0.0000   -0.0043    0.0089
       75 H2     *d1+      -0.0000   -0.0000   -0.0000    0.0000    0.0000   -0.0000    0.0000   -0.0000    0.0445   -0.0918
       76 H2     *d2+       0.0000    0.0000    0.0000    0.0000   -0.0000   -0.0000   -0.0000   -0.0000    0.0164    0.0072
       77 H2     *d2+      -0.0000   -0.0000   -0.0000    0.0000    0.0000   -0.0000    0.0000   -0.0000   -0.0742   -0.0323
       78 H2     *d2+       0.0000    0.0000    0.0000   -0.0000   -0.0000   -0.0000   -0.0000   -0.0000    0.7653    0.3333
       79 H2     *f3-       0.0000   -0.0000    0.0000    0.0000   -0.0000   -0.0000   -0.0000   -0.0000    0.0000    0.0000
       80 H2     *f3-       0.0000   -0.0000    0.0000    0.0000    0.0000   -0.0000    0.0000   -0.0000    0.0000    0.0000
       81 H2     *f2-      -0.0000   -0.0000    0.0000   -0.0000   -0.0000   -0.0000    0.0000   -0.0000    0.0000    0.0000
       82 H2     *f2-       0.0000    0.0000   -0.0000   -0.0000    0.0000   -0.0000   -0.0000   -0.0000    0.0000    0.0000
       83 H2     *f1-      -0.0000   -0.0000    0.0000   -0.0000   -0.0000   -0.0000   -0.0000   -0.0000   -0.0000    0.0000
       84 H2     *f1-       0.0000    0.0000    0.0000    0.0000    0.0000   -0.0000    0.0000   -0.0000    0.0000   -0.0000
       85 H2     *f0        0.0000    0.0000   -0.0000   -0.0000    0.0000   -0.0000    0.0000   -0.0000   -0.0000    0.0000
       86 H2     *f0        0.0000   -0.0000    0.0000    0.0000    0.0000   -0.0000    0.0000   -0.0000   -0.0000    0.0000
       87 H2     *f1+      -0.0000   -0.0000   -0.0000   -0.0000    0.0000   -0.0000   -0.0000   -0.0000   -0.0000   -0.0000
       88 H2     *f1+       0.0000    0.0000    0.0000    0.0000    0.0000   -0.0000   -0.0000   -0.0000   -0.0000   -0.0000
       89 H2     *f2+       0.0000    0.0000   -0.0000   -0.0000    0.0000   -0.0000   -0.0000   -0.0000   -0.0000    0.0000
       90 H2     *f2+      -0.0000   -0.0000    0.0000    0.0000    0.0000   -0.0000    0.0000   -0.0000    0.0000    0.0000
       91 H2     *f3+       0.0000   -0.0000   -0.0000   -0.0000    0.0000   -0.0000   -0.0000   -0.0000    0.0000    0.0000
       92 H2     *f3+      -0.0000    0.0000   -0.0000    0.0000   -0.0000   -0.0000    0.0000   -0.0000    0.0000   -0.0000

          Orbital           11        12        13        14        15        16    
          Energy            0.2842    0.2842    0.2842    0.3622    0.3622    0.3622
          Occ. No.          0.0000    0.0000    0.0000    0.0000    0.0000    0.0000

        1 H1     1s         0.0000   -0.0000    0.0000   -0.0000    0.0000    0.0000
        2 H1     *s         0.0000   -0.0000    0.0000   -0.0000    0.0000    0.0000
        3 H1     *s         0.0000   -0.0000    0.0000   -0.0000    0.0000    0.0000
        4 H1     *s         0.0000   -0.0000    0.0000   -0.0000    0.0000    0.0000
        5 H1     *s         0.0000   -0.0000    0.0000   -0.0000    0.0000    0.0000
        6 H1     *px        0.0000   -0.0000    0.0000   -0.0000    0.0000    0.0000
        7 H1     *px        0.0000   -0.0000    0.0000   -0.0000    0.0000    0.0000
        8 H1     *px        0.0000   -0.0000    0.0000   -0.0000    0.0000    0.0000
        9 H1     *px        0.0000   -0.0000    0.0000   -0.0000    0.0000    0.0000
       10 H1     *py        0.0000   -0.0000    0.0000   -0.0000    0.0000    0.0000
       11 H1     *py        0.0000   -0.0000    0.0000   -0.0000    0.0000    0.0000
       12 H1     *py        0.0000   -0.0000    0.0000   -0.0000    0.0000    0.0000
       13 H1     *py        0.0000   -0.0000    0.0000   -0.0000    0.0000    0.0000
       14 H1     *pz        0.0000   -0.0000    0.0000   -0.0000    0.0000    0.0000
       15 H1     *pz        0.0000   -0.0000    0.0000   -0.0000    0.0000    0.0000
       16 H1     *pz        0.0000   -0.0000    0.0000   -0.0000    0.0000    0.0000
       17 H1     *pz        0.0000   -0.0000    0.0000   -0.0000    0.0000    0.0000
       18 H1     *d2-       0.0000   -0.0000    0.0000   -0.0000    0.0000    0.0000
       19 H1     *d2-       0.0000   -0.0000    0.0000   -0.0000    0.0000    0.0000
       20 H1     *d2-       0.0000   -0.0000    0.0000   -0.0000    0.0000    0.0000
       21 H1     *d1-       0.0000   -0.0000    0.0000   -0.0000    0.0000    0.0000
       22 H1     *d1-       0.0000   -0.0000    0.0000   -0.0000    0.0000    0.0000
       23 H1     *d1-       0.0000   -0.0000    0.0000   -0.0000    0.0000    0.0000
       24 H1     *d0        0.0000   -0.0000    0.0000   -0.0000    0.0000    0.0000
       25 H1     *d0        0.0000   -0.0000    0.0000   -0.0000    0.0000    0.0000
       26 H1     *d0        0.0000   -0.0000    0.0000   -0.0000    0.0000    0.0000
       27 H1     *d1+       0.0000   -0.0000    0.0000   -0.0000    0.0000    0.0000
       28 H1     *d1+       0.0000   -0.0000    0.0000   -0.0000    0.0000    0.0000
       29 H1     *d1+       0.0000   -0.0000    0.0000   -0.0000    0.0000    0.0000
       30 H1     *d2+       0.0000   -0.0000    0.0000   -0.0000    0.0000    0.0000
       31 H1     *d2+       0.0000   -0.0000    0.0000   -0.0000    0.0000    0.0000
       32 H1     *d2+       0.0000   -0.0000    0.0000   -0.0000    0.0000    0.0000
       33 H1     *f3-       0.0000   -0.0000    0.0000   -0.0000    0.0000    0.0000
       34 H1     *f3-       0.0000   -0.0000    0.0000   -0.0000    0.0000    0.0000
       35 H1     *f2-       0.0000   -0.0000    0.0000   -0.0000    0.0000    0.0000
       36 H1     *f2-       0.0000   -0.0000    0.0000   -0.0000    0.0000    0.0000
       37 H1     *f1-       0.0000   -0.0000    0.0000   -0.0000    0.0000    0.0000
       38 H1     *f1-       0.0000   -0.0000    0.0000   -0.0000    0.0000    0.0000
       39 H1     *f0        0.0000   -0.0000    0.0000   -0.0000    0.0000    0.0000
       40 H1     *f0        0.0000   -0.0000    0.0000   -0.0000    0.0000    0.0000
       41 H1     *f1+       0.0000   -0.0000    0.0000   -0.0000    0.0000    0.0000
       42 H1     *f1+       0.0000   -0.0000    0.0000   -0.0000    0.0000    0.0000
       43 H1     *f2+       0.0000   -0.0000    0.0000   -0.0000    0.0000    0.0000
       44 H1     *f2+       0.0000   -0.0000    0.0000   -0.0000    0.0000    0.0000
       45 H1     *f3+       0.0000   -0.0000    0.0000   -0.0000    0.0000    0.0000
       46 H1     *f3+       0.0000   -0.0000    0.0000   -0.0000    0.0000    0.0000
       47 H2     1s        -0.0000    0.0000   -0.0000   -0.0000   -0.0000    0.0000
       48 H2     *s         0.0000    0.0000   -0.0000   -0.0000    0.0000   -0.0000
       49 H2     *s        -0.0000   -0.0000    0.0000    0.0000    0.0000    0.0000
       50 H2     *s         0.0000    0.0000    0.0000   -0.0000    0.0000   -0.0000
       51 H2     *s        -0.0000    0.0000   -0.0000    0.0000   -0.0000    0.0000
       52 H2     *px       -0.0000   -0.0000   -0.0000   -0.0617   -0.0000    0.0137
       53 H2     *px        0.0000    0.0000    0.0000    0.1895    0.0001   -0.0420
       54 H2     *px       -0.0000   -0.0000   -0.0000   -1.4104   -0.0004    0.3125
       55 H2     *px        0.0000    0.0000   -0.0000    0.9078    0.0003   -0.2011
       56 H2     *py       -0.0000    0.0000    0.0000   -0.0000    0.0632    0.0000
       57 H2     *py        0.0000   -0.0000   -0.0000    0.0000   -0.1941   -0.0000
       58 H2     *py       -0.0000    0.0000    0.0000   -0.0004    1.4446    0.0002
       59 H2     *py        0.0000    0.0000   -0.0000    0.0002   -0.9298   -0.0002
       60 H2     *pz        0.0000    0.0000    0.0000   -0.0137    0.0000   -0.0617
       61 H2     *pz       -0.0000   -0.0000    0.0000    0.0420   -0.0000    0.1895
       62 H2     *pz       -0.0000    0.0000    0.0000   -0.3125    0.0002   -1.4104
       63 H2     *pz        0.0000    0.0000   -0.0000    0.2011   -0.0001    0.9078
       64 H2     *d2-      -0.0196    0.0019    0.0108   -0.0000    0.0000   -0.0000
       65 H2     *d2-       0.0886   -0.0086   -0.0486   -0.0000   -0.0000    0.0000
       66 H2     *d2-      -0.9142    0.0887    0.5013   -0.0000   -0.0000    0.0000
       67 H2     *d1-      -0.0038    0.0021   -0.0073    0.0000    0.0000    0.0000
       68 H2     *d1-       0.0170   -0.0093    0.0331   -0.0000    0.0000   -0.0000
       69 H2     *d1-      -0.1756    0.0956   -0.3417   -0.0000    0.0000    0.0000
       70 H2     *d0        0.0084    0.0007    0.0136    0.0000    0.0000    0.0000
       71 H2     *d0       -0.0379   -0.0032   -0.0613    0.0000   -0.0000    0.0000
       72 H2     *d0        0.3908    0.0329    0.6321   -0.0000    0.0000   -0.0000
       73 H2     *d1+       0.0018    0.0223   -0.0005    0.0000   -0.0000   -0.0000
       74 H2     *d1+      -0.0082   -0.1007    0.0024    0.0000   -0.0000    0.0000
       75 H2     *d1+       0.0847    1.0391   -0.0252   -0.0000    0.0000    0.0000
       76 H2     *d2+       0.0057   -0.0002    0.0123    0.0000   -0.0000   -0.0000
       77 H2     *d2+      -0.0259    0.0011   -0.0557   -0.0000    0.0000   -0.0000
       78 H2     *d2+       0.2672   -0.0112    0.5742    0.0000   -0.0000    0.0000
       79 H2     *f3-      -0.0000    0.0000    0.0000    0.0000   -0.0000    0.0000
       80 H2     *f3-      -0.0000    0.0000    0.0000   -0.0000   -0.0000   -0.0000
       81 H2     *f2-       0.0000   -0.0000    0.0000    0.0000    0.0000    0.0000
       82 H2     *f2-      -0.0000    0.0000    0.0000    0.0000   -0.0000   -0.0000
       83 H2     *f1-       0.0000    0.0000   -0.0000    0.0000   -0.0000    0.0000
       84 H2     *f1-       0.0000    0.0000    0.0000   -0.0000    0.0000   -0.0000
       85 H2     *f0        0.0000   -0.0000    0.0000   -0.0000    0.0000   -0.0000
       86 H2     *f0        0.0000    0.0000    0.0000   -0.0000   -0.0000   -0.0000
       87 H2     *f1+       0.0000    0.0000    0.0000    0.0000    0.0000   -0.0000
       88 H2     *f1+      -0.0000    0.0000   -0.0000   -0.0000   -0.0000    0.0000
       89 H2     *f2+       0.0000    0.0000   -0.0000   -0.0000    0.0000   -0.0000
       90 H2     *f2+       0.0000   -0.0000   -0.0000    0.0000   -0.0000    0.0000
       91 H2     *f3+       0.0000   -0.0000   -0.0000   -0.0000    0.0000    0.0000
       92 H2     *f3+       0.0000    0.0000   -0.0000   -0.0000   -0.0000    0.0000
--


++    Molecular charges:
      ------------------

      Mulliken charges per centre and basis function type
      ---------------------------------------------------

                H1      H2    
      1s       0.0000  2.0014
      *s       0.0000 -0.0014
      *px      0.0000  0.0000
      *pz      0.0000  0.0000
      *py      0.0000  0.0000
      *d2+     0.0000 -0.0000
      *d1+     0.0000  0.0000
      *d0      0.0000 -0.0000
      *d1-     0.0000  0.0000
      *d2-     0.0000  0.0000
      *f3+     0.0000  0.0000
      *f2+     0.0000  0.0000
      *f1+     0.0000  0.0000
      *f0      0.0000  0.0000
      *f1-     0.0000  0.0000
      *f2-     0.0000  0.0000
      *f3-     0.0000  0.0000
      Total    0.0000  2.0000

      N-E      1.0000 -1.0000

      Total electronic charge=    2.000000

      Total            charge=    0.000000
--


++    Molecular properties:
      ---------------------

      Charge (e):
                      =    0.0000
      Dipole Moment (Debye):
      Origin of the operator (Ang)=    0.0000    0.0000    0.0000
                   X= -4.8032E+12               Y= -4.3376E-16               Z=  3.6468E-16           Total=  4.8032E+12
      Quadrupole Moment (Debye*Ang):
      Origin of the operator (Ang)=**********    0.0000    0.0000
                  XX=  2.1663E+09              XY= -2.1688E-04              XZ=  1.8234E-04              YY= -2.6929E+00
                  YZ=  1.6760E-17              ZZ= -2.6929E+00
      In traceless form (Debye*Ang)
                  XX=  2.1663E+09              XY= -3.2532E-04              XZ=  2.7351E-04              YY= -1.0832E+09
                  YZ=  2.5139E-17              ZZ= -1.0832E+09
--


      Input file to MOLDEN was generated!

 ###############################################################################
 ###############################################################################
 ###                                                                         ###
 ###                                                                         ###
 ###    WARNING: RunFile label nBas                                          ###
 ###    was used       60 times                                              ###
 ###                                                                         ###
 ###                                                                         ###
 ###############################################################################
 ###############################################################################
--- Stop Module: scf at Tue May  7 14:51:43 2024 /rc=_RC_ALL_IS_WELL_ ---
*** files: h2_potential.scf.molden h2_potential.ScfOrb xmldump
    saved to directory /home/kenya/molcas_test/0507
--- Module scf spent 1 second ---

.##################.
.# Happy landing! #.
.##################.

    Timing: Wall=2.89 User=2.39 System=0.47
