   This run of MOLCAS is using the pymolcas driver

                             OPE
                             OPE          NMOL  CASOP  ENMOLC A   SO
                 OPE        NMOLC        AS  OP EN  MO LC     AS  OP
                OPENM       OL CA        SO  PE NM  OL CA     SOP EN
                OP EN      MO   LC       AS  OP ENMOL  CASO   PENMOL
                OP  EN     MO   LC       AS  OP EN     MO     LC ASO
               OP   E  NMOL  C  AS       OP  EN MO     LC     AS  OP
               OP  E   NMO   LC AS        OPEN  MO     LCASOP EN   M
               O  PEN   MO  LCA  SO
            OPE   NMO   L   CAS    OP
        OPENMOL  CASOP     ENMOL   CASOPE
     OPENMOLCA   SOPENMOLCASOPEN   MOLCASOPE
    OPENMOLCAS   OP           EN   MOL    CAS
    OPENMOLCAS       OP  ENM        O     LCA
    OPENMOLCAS    OPEN  MOLCASO     P  E  NMO
    OPENMOLCAS     OP               E  N  MOL
    OPENMOLCA   SO           PENM   O  L  CAS    OPEN    MO    LCAS
    OPENMOLCA   SOP           ENM   O  L  CAS   OP  EN  MOLC  AS   O
    OPENMOLCA   SOPE           NM      O  LCA   S      OP  EN MO
    OPENMOLC                AS         O  PEN   M      OL  CA  SOPE
    OPENMO        LCASOPE  NMOL        C  ASO   P      ENMOLC     AS
    OPE     NMO      LCA  SO     P     E   NM   OL  CA SO  PE N   MO
          OPENMOLCA            SOPE   NMO        LCAS  O    P  ENMO
     OPENMOLCASOPENMOLCASOPENMOLCASOPENMOLCA
        OPENMOLCASOPENMOLCASOPENMOLCASOPE
            OPENMOLCASOPENMOLCASOPENM
               OPENMOLCASOPENMOLCA        version: 24.02
                   OPENMOLCASO
                       OPE                tag: 428-g03afa2e9a

 OpenMolcas is free software; you can redistribute it and/or modify it
 under the terms of the GNU Lesser General Public License version 2.1.
 OpenMolcas is distributed in the hope that it will be useful, but it
 is provided "as is" and without any express or implied warranties.
 For more details see the full text of the license in the file
 LICENSE or in <http://www.gnu.org/licenses/>.

                 Copyright (C) The OpenMolcas Authors
           For the author list and the recommended citation,
                   consult the file CONTRIBUTORS.md

           *************************************************
           * pymolcas version py2.28                       *
           *   build c4a6d18ded8cb6cad61d2372a9abd97c      *
           *   (after the EMIL interpreter by V. Veryazov) *
           *************************************************

configuration info
------------------
Host name: DESKTOP-ET1S6F4 (Linux)
C Compiler ID: GNU
C flags: -std=gnu99 -fopenmp
Fortran Compiler ID: GNU
Fortran flags: -fno-aggressive-loop-optimizations -cpp -fdefault-integer-8 -fopenmp
Definitions: _WARNING_WORKAROUND_;_MOLCAS_;_I8_;_LINUX_
Parallel: OFF (GA=OFF)


   ----------------------------------------------------------------------
  |
  |           Project: 0507
  |    Submitted from: /home/kenya/molcas_test/0507
  |      Scratch area: /tmp/0507
  |   Save outputs to: /home/kenya/molcas_test/0507
  |            Molcas: /home/kenya/OpenMolcas/builds/gnu_dev_omp
  |
  | Scratch area is NOT empty
  |
  |    MOLCAS_DRIVER = /home/kenya/OpenMolcas/builds/gnu_dev_omp/pymolcas
  |    MOLCAS_NPROCS = 1
  |    MOLCAS_SOURCE = /home/kenya/OpenMolcas
  | MOLCAS_STRUCTURE = 0
  |
   ----------------------------------------------------------------------

++ ---------   Input file   ---------

&GATEWAY
 Coord = 2
 Angstrom
 O 0.0 0.0 0.0
 H 1.0 0.0 0.0
 Basis = aug-cc-pVQZ
 Group = C1
 NoCD

&SEWARD

&SCF
 Charge = -1

&GATEWAY
 Coord = 2
 Angstrom
 O 0.0 0.0 0.0
 H 1.0 0.0 0.0
 Basis = aug-cc-pVQZ
 Group = C1
 NoCD

&SEWARD

&SCF
 Spin = 2

-- ----------------------------------

*** symbolic link created: INPORB -> 0507.UnaOrb
--- Start Module: gateway at Tue May  7 13:32:02 2024 ---

()()()()()()()()()()()()()()()()()()()()()()()()()()()()()()()()()()()()()()()()()()()()()()()()()()

                                              &GATEWAY

                                   only a single process is used
                       available to each process: 2.0 GB of memory, 1 thread
                                             pid: 22985
()()()()()()()()()()()()()()()()()()()()()()()()()()()()()()()()()()()()()()()()()()()()()()()()()()


++    Symmetry information:
      ---------------------

                    Character Table for C1 

                             E  
                    a        1  x, y, xy, Rz, z, xz, Ry, yz, Rx, I
--


++    Basis set information:
      ----------------------


      Basis set label: O.AUG-CC-PVQZ.........

      Electronic valence basis set:
      ------------------
      Associated Effective Charge   8.000000 au
      Associated Actual Charge      8.000000 au
      Nuclear Model: Point charge

      Shell  nPrim  nBasis  Cartesian Spherical Contaminant
         s      13       6        X                  
         p       7       5        X                  
         d       4       4                 X         
         f       3       3                 X         
         g       2       2                 X         


      Basis set label: H.AUG-CC-PVQZ.........

      Electronic valence basis set:
      ------------------
      Associated Effective Charge   1.000000 au
      Associated Actual Charge      1.000000 au
      Nuclear Model: Point charge

      Shell  nPrim  nBasis  Cartesian Spherical Contaminant
         s       7       5        X                  
         p       4       4        X                  
         d       3       3                 X         
         f       2       2                 X         
--


++    Molecular structure info:
      -------------------------

                    ************************************************ 
                    **** Cartesian Coordinates / Bohr, Angstrom **** 
                    ************************************************ 

     Center  Label                x              y              z                     x              y              z
        1      O1               0.000000       0.000000       0.000000              0.000000       0.000000       0.000000
        2      H2               1.889726       0.000000       0.000000              1.000000       0.000000       0.000000
--


            Nuclear Potential Energy              4.23341769 au

--- Stop Module: gateway at Tue May  7 13:32:03 2024 /rc=_RC_ALL_IS_WELL_ ---
*** files: xmldump
    saved to directory /home/kenya/molcas_test/0507

*** symbolic link created: INPORB -> 0507.UnaOrb
--- Start Module: seward at Tue May  7 13:32:03 2024 ---

()()()()()()()()()()()()()()()()()()()()()()()()()()()()()()()()()()()()()()()()()()()()()()()()()()

                                              &SEWARD

                                   only a single process is used
                       available to each process: 2.0 GB of memory, 1 thread
                                             pid: 22989
()()()()()()()()()()()()()()()()()()()()()()()()()()()()()()()()()()()()()()()()()()()()()()()()()()

               SEWARD will generate:
                  Multipole Moment integrals up to order  2
                  Kinetic Energy integrals
                  Nuclear Attraction integrals (point charge)
                  One-Electron Hamiltonian integrals
                  Velocity integrals
                  Orbital angular momentum around ( 0.1120  0.0000  0.0000 )
                  Velocity quadrupole around ( 0.1120  0.0000  0.0000 )
                  Two-Electron Repulsion integrals

                   Integrals are discarded if absolute value <: 1.00E-14
                   Integral cutoff threshold is set to       <: 1.00E-16

            Nuclear Potential Energy              4.23341769 au


      Basis set specifications :
      Symmetry species         a  
      Basis functions          126


      Input file to MOLDEN was generated!

--- Stop Module: seward at Tue May  7 13:32:07 2024 /rc=_RC_ALL_IS_WELL_ ---
*** files: 0507.GssOrb 0507.guessorb.molden xmldump
    saved to directory /home/kenya/molcas_test/0507
--- Module seward spent 4 seconds ---

*** symbolic link created: INPORB -> 0507.UhfOrb
--- Start Module: scf at Tue May  7 13:32:07 2024 ---

()()()()()()()()()()()()()()()()()()()()()()()()()()()()()()()()()()()()()()()()()()()()()()()()()()

                                                &SCF

                                   only a single process is used
                       available to each process: 2.0 GB of memory, 1 thread
                                             pid: 23071
()()()()()()()()()()()()()()()()()()()()()()()()()()()()()()()()()()()()()()()()()()()()()()()()()()

++    Input section:
      --------------

      Header of the integral files:
      
       Integrals generated by Gateway/Seward, Tue May  7 13:32:03 2024


      Cartesian coordinates in Angstrom:
      -----------------------------------------------------
      No.  Label        X            Y            Z        
      -----------------------------------------------------
       1   O1         0.00000000   0.00000000   0.00000000
       2   H2         1.00000000   0.00000000   0.00000000
      -----------------------------------------------------
      Nuclear repulsion energy =    4.23341769
--

++    Orbital specifications:
      -----------------------

      Symmetry species               1
                                     a
      Frozen orbitals                0
      Aufbau                         5
      Start temperature = 0.500
      End temperature   = 0.010
      Temperature Factor= 0.460
      Deleted orbitals               0
      Total number of orbitals     126
      Number of basis functions    126
--

      Molecular charge                          -1.000

++    Optimization specifications:
      ----------------------------

      SCF Algorithm: Conventional
      Minimized density differences are used
      Number of density matrices in core                 5
      Maximum number of NDDO SCF iterations            400
      Maximum number of HF SCF iterations              400
      Threshold for SCF energy change             1.00E-09
      Threshold for density matrix                1.00E-04
      Threshold for Fock matrix                   1.50E-04
      Threshold for linear dependence             1.00E-09
      Threshold at which DIIS is turned on        1.50E-01
      Maximum depth in the DIIS procedure                5
      Maximum depth in the BFGS Hessian update          30
      Threshold at which QNR/C2DIIS is turned on  7.50E-02
      Threshold for Norm(delta) (QNR/C2DIIS)      1.00E-03
      All orbitals punched on: SCFORB
--

      Detected guessorb starting orbitals                                             


++ Convergence information
                                   SCF        iterations: Energy and convergence statistics

Iter     Tot. SCF        One-elec.       Two-elec.     Energy      Max Dij or  Max Fij      DNorm      TNorm      AccCon     Time
         Energy          Energy          Energy        Change      Delta Norm                                                in Sec.
   1   -74.149801991  -116.742137525    38.358917847   0.00E+00    2.20E-01*   2.89E+00*    8.30E+00   8.44E+01   None         1.
   2   -72.075037797  -100.833701051    24.525245568   2.07E+00*   2.21E-01*   4.50E-13     2.41E+02   6.69E+01   EDIIS        1.
   3   -74.068320214  -106.821579184    28.519841282  -1.99E+00*   9.63E-02*   9.85E-02*    2.01E+01   7.26E+01   EDIIS        1.
   4   -75.237242644  -119.113573231    39.642912900  -1.17E+00*   3.30E-01*   2.84E-01*    4.36E+00   8.53E+01   EDIIS        1.
   5   -74.985762846  -110.493440286    31.274259753   2.51E-01*   1.08E-01*   1.03E-01*    8.08E+00   7.70E+01   EDIIS        1.
   6   -75.405512690  -115.492206459    35.853276081  -4.20E-01*   6.02E-02*   1.14E-01*    1.09E+00   8.22E+01   EDIIS        0.
   7   -75.407742039  -116.846623202    37.205463476  -2.23E-03*   1.16E-02*   4.27E-02*    1.86E-01   8.33E+01   EDIIS        1.

       Fermi aufbau procedure completed!
      nOcc=    5

   8   -75.414241443  -116.127131677    36.479472547  -6.50E-03*   7.12E-03*   7.77E-03*    3.98E-02   8.27E+01   EDIIS        1.
   9   -75.414282184  -116.259961697    36.612261826  -4.07E-05*   3.52E-03*   4.40E-03*    9.96E-03   8.28E+01   EDIIS        1.
  10   -75.414342374  -116.178662401    36.530902340  -6.02E-05*   2.19E-03*   2.24E-03*    1.85E-03   8.28E+01   EDIIS        1.
  11   -75.414346512  -116.214698491    36.566934292  -4.14E-06*   1.33E-03*   7.17E-04*    1.00E-03   8.28E+01   EDIIS        1.
  12   -75.414350740  -116.190189068    36.542420641  -4.23E-06*   4.21E-04*   2.22E-04*    1.95E-04   8.28E+01   c2DIIS       1.
  13   -75.414351999  -116.198622040    36.550852353  -1.26E-06*   2.70E-04    1.19E-04     3.05E-05   8.28E+01   QNRc2DIIS    0.
  14   -75.414352164  -116.197848279    36.550078427  -1.65E-07*   4.06E-04    4.43E-05     2.94E-05   8.28E+01   QNRc2DIIS    0.
  15   -75.414352228  -116.199254981    36.551485066  -6.35E-08*   7.87E-05    3.41E-05     2.22E-03   8.28E+01   QNRc2DIIS    0.
  16   -75.414352238  -116.198476113    36.550706188  -1.07E-08*   4.16E-06    8.68E-07     3.44E-03   8.28E+01   QNRc2DIIS    0.
  17   -75.414352238  -116.198478470    36.550708544  -1.69E-11    2.78E-07    7.53E-08     5.58E-04   8.28E+01   QNRc2DIIS    0.

       Convergence after  17 Macro Iterations
--

 *****************************************************************************************************************************
 *                                                                                                                           *
 *                                             SCF/KS-DFT Program, Final results                                             *
 *                                                                                                                           *
 *                                                                                                                           *
 *                                                                                                                           *
 *                                                       Final Results                                                       *
 *                                                                                                                           *
 *****************************************************************************************************************************

::    Total SCF energy                                -75.4143522384
      One-electron energy                            -116.1984784701
      Two-electron energy                              36.5507085444
      Nuclear repulsion energy                          4.2334176872
      Kinetic energy (interpolated)                    75.3101053748
      Virial theorem                                    1.0013842347
      Total spin, S(S+1)                                0.0000000000
      Total spin, S                                     0.0000000000
      Max non-diagonal density matrix element           0.0000002429
      Max non-diagonal Fock matrix element              0.0000000308


      All orbitals with orbital energies smaller than  E(LUMO)+0.5 are printed

++    Molecular orbitals:
      -------------------

      Title: SCF orbitals

      Molecular orbitals for symmetry species 1: a  

          Orbital            1         2         3         4         5         6         7         8         9        10    
          Energy          -20.1906   -0.8936   -0.2441   -0.1101   -0.1101    0.1707    0.2897    0.3294    0.3294    0.3564
          Occ. No.          2.0000    2.0000    2.0000    2.0000    2.0000    0.0000    0.0000    0.0000    0.0000    0.0000

        1 O1     1s         1.0006   -0.0029   -0.0018    0.0000   -0.0000    0.0049   -0.0069    0.0000   -0.0000   -0.0159
        2 O1     2s         0.0021    0.9036   -0.2755    0.0000   -0.0000   -0.0225   -0.0205   -0.0000   -0.0000   -0.1913
        3 O1     *s         0.0001   -0.0043   -0.0021   -0.0000   -0.0000    0.0296   -0.0071   -0.0000   -0.0000   -0.0874
        4 O1     *s        -0.0036   -0.0348   -0.0231   -0.0000   -0.0000   -0.1013    0.0082    0.0000    0.0000    0.6611
        5 O1     *s         0.0017    0.0202   -0.1186    0.0000   -0.0000   -1.8153   -2.8582    0.0000    0.0000    2.8220
        6 O1     *s         0.0012    0.0340   -0.0734    0.0000    0.0000   -5.2306   -8.2211    0.0000    0.0000    4.9385
        7 O1     2px        0.0066    0.0885    0.7032    0.0000    0.0000   -0.0394    0.1488    0.0000   -0.0000   -0.0873
        8 O1     *px       -0.0028    0.0014   -0.0041   -0.0000   -0.0000    0.0194    0.0184   -0.0000    0.0000   -0.0004
        9 O1     *px       -0.0032    0.0033   -0.0119    0.0000    0.0000   -0.2565   -0.2611    0.0000    0.0000    0.4727
       10 O1     *px        0.0005   -0.0010    0.0195    0.0000    0.0000   -1.4284   -1.4498    0.0000    0.0000    0.5886
       11 O1     *px        0.0004    0.0028    0.0356    0.0000    0.0000   -0.9970   -2.7911   -0.0000    0.0000   -0.7977
       12 O1     2py        0.0000    0.0000    0.0000   -0.0273   -0.8635    0.0000    0.0000    0.0032    0.2059    0.0000
       13 O1     *py       -0.0000   -0.0000   -0.0000    0.0002    0.0049    0.0000    0.0000    0.0003    0.0222    0.0000
       14 O1     *py       -0.0000   -0.0000    0.0000   -0.0001   -0.0017   -0.0000    0.0000   -0.0007   -0.0462    0.0000
       15 O1     *py       -0.0000   -0.0000    0.0000   -0.0027   -0.0851    0.0000    0.0000   -0.0031   -0.1979    0.0000
       16 O1     *py        0.0000    0.0000    0.0000   -0.0039   -0.1224   -0.0000   -0.0000   -0.0322   -2.0430    0.0000
       17 O1     2pz       -0.0000   -0.0000   -0.0000    0.8635   -0.0273   -0.0000   -0.0000    0.2059   -0.0032   -0.0000
       18 O1     *pz       -0.0000    0.0000    0.0000   -0.0049    0.0002    0.0000    0.0000    0.0222   -0.0003   -0.0000
       19 O1     *pz       -0.0000   -0.0000   -0.0000    0.0017   -0.0001   -0.0000   -0.0000   -0.0462    0.0007    0.0000
       20 O1     *pz        0.0000   -0.0000   -0.0000    0.0851   -0.0027   -0.0000    0.0000   -0.1979    0.0031   -0.0000
       21 O1     *pz        0.0000   -0.0000   -0.0000    0.1224   -0.0039   -0.0000    0.0000   -2.0430    0.0322    0.0000
       22 O1     *d2-      -0.0000    0.0000   -0.0000   -0.0000   -0.0013    0.0000   -0.0000    0.0000    0.0009   -0.0000
       23 O1     *d2-      -0.0000   -0.0000    0.0000   -0.0002   -0.0060   -0.0000    0.0000   -0.0000   -0.0002   -0.0000
       24 O1     *d2-      -0.0000    0.0000    0.0000   -0.0003   -0.0097    0.0000    0.0000    0.0009    0.0541    0.0000
       25 O1     *d2-      -0.0000    0.0000   -0.0000   -0.0002   -0.0050   -0.0000    0.0000   -0.0076   -0.4828    0.0000
       26 O1     *d1-       0.0000    0.0000    0.0000   -0.0000   -0.0000    0.0000   -0.0000    0.0000   -0.0000    0.0000
       27 O1     *d1-      -0.0000   -0.0000   -0.0000   -0.0000   -0.0000   -0.0000    0.0000   -0.0000    0.0000    0.0000
       28 O1     *d1-      -0.0000    0.0000    0.0000   -0.0000   -0.0000    0.0000   -0.0000   -0.0000   -0.0000   -0.0000
       29 O1     *d1-       0.0000    0.0000    0.0000   -0.0000   -0.0000    0.0000    0.0000   -0.0000    0.0000   -0.0000
       30 O1     *d0       -0.0001   -0.0005   -0.0017    0.0000   -0.0000   -0.0003   -0.0010   -0.0000    0.0000    0.0016
       31 O1     *d0        0.0002   -0.0029   -0.0063    0.0000   -0.0000    0.0040    0.0045    0.0000   -0.0000   -0.0172
       32 O1     *d0       -0.0002   -0.0054   -0.0114   -0.0000   -0.0000    0.0926    0.0375   -0.0000   -0.0000   -0.0668
       33 O1     *d0       -0.0004   -0.0013   -0.0061   -0.0000   -0.0000    0.1530    0.1862    0.0000   -0.0000    0.2347
       34 O1     *d1+      -0.0000   -0.0000   -0.0000    0.0013   -0.0000    0.0000    0.0000    0.0009   -0.0000    0.0000
       35 O1     *d1+      -0.0000    0.0000    0.0000    0.0060   -0.0002   -0.0000    0.0000   -0.0002    0.0000   -0.0000
       36 O1     *d1+      -0.0000   -0.0000   -0.0000    0.0097   -0.0003   -0.0000    0.0000    0.0541   -0.0009   -0.0000
       37 O1     *d1+       0.0000   -0.0000    0.0000    0.0050   -0.0002   -0.0000    0.0000   -0.4828    0.0076   -0.0000
       38 O1     *d2+       0.0001    0.0008    0.0029    0.0000   -0.0000    0.0006    0.0018    0.0000   -0.0000   -0.0027
       39 O1     *d2+      -0.0003    0.0050    0.0108   -0.0000   -0.0000   -0.0069   -0.0078    0.0000    0.0000    0.0298
       40 O1     *d2+       0.0003    0.0094    0.0198    0.0000    0.0000   -0.1604   -0.0650    0.0000    0.0000    0.1157
       41 O1     *d2+       0.0006    0.0023    0.0106    0.0000    0.0000   -0.2650   -0.3226    0.0000    0.0000   -0.4066
       42 O1     *f3-      -0.0000   -0.0000   -0.0000   -0.0000   -0.0009    0.0000   -0.0000   -0.0000   -0.0025    0.0000
       43 O1     *f3-      -0.0000    0.0000    0.0000   -0.0001   -0.0028   -0.0000    0.0000    0.0004    0.0265    0.0000
       44 O1     *f3-      -0.0000    0.0000    0.0000   -0.0001   -0.0022   -0.0000    0.0000   -0.0007   -0.0469    0.0000
       45 O1     *f2-       0.0000   -0.0000    0.0000    0.0000   -0.0000   -0.0000    0.0000   -0.0000   -0.0000   -0.0000
       46 O1     *f2-      -0.0000   -0.0000    0.0000   -0.0000   -0.0000    0.0000   -0.0000    0.0000   -0.0000    0.0000
       47 O1     *f2-       0.0000    0.0000    0.0000    0.0000   -0.0000    0.0000    0.0000   -0.0000   -0.0000   -0.0000
       48 O1     *f1-       0.0000   -0.0000    0.0000    0.0000    0.0002    0.0000   -0.0000    0.0000    0.0006    0.0000
       49 O1     *f1-       0.0000    0.0000   -0.0000    0.0000    0.0007   -0.0000    0.0000   -0.0001   -0.0068   -0.0000
       50 O1     *f1-       0.0000   -0.0000   -0.0000    0.0000    0.0006    0.0000   -0.0000    0.0002    0.0121   -0.0000
       51 O1     *f0        0.0000    0.0000   -0.0000   -0.0006    0.0000    0.0000   -0.0000    0.0016   -0.0000    0.0000
       52 O1     *f0        0.0000    0.0000   -0.0000   -0.0018    0.0001    0.0000   -0.0000   -0.0167    0.0003    0.0000
       53 O1     *f0        0.0000    0.0000    0.0000   -0.0014    0.0000    0.0000   -0.0000    0.0297   -0.0005    0.0000
       54 O1     *f1+      -0.0000   -0.0004   -0.0010    0.0000    0.0000    0.0003    0.0004    0.0000   -0.0000   -0.0013
       55 O1     *f1+       0.0000   -0.0017   -0.0029   -0.0000   -0.0000    0.0116   -0.0003   -0.0000   -0.0000   -0.0119
       56 O1     *f1+      -0.0002   -0.0018   -0.0032   -0.0000   -0.0000    0.0301    0.0080    0.0000    0.0000    0.0474
       57 O1     *f2+      -0.0000    0.0000    0.0000    0.0007   -0.0000   -0.0000    0.0000   -0.0020    0.0000   -0.0000
       58 O1     *f2+      -0.0000   -0.0000   -0.0000    0.0023   -0.0001   -0.0000    0.0000    0.0216   -0.0003   -0.0000
       59 O1     *f2+       0.0000   -0.0000   -0.0000    0.0018   -0.0001   -0.0000    0.0000   -0.0383    0.0006   -0.0000
       60 O1     *f3+       0.0000    0.0006    0.0013   -0.0000   -0.0000   -0.0004   -0.0005    0.0000   -0.0000    0.0017
       61 O1     *f3+      -0.0000    0.0022    0.0038    0.0000    0.0000   -0.0150    0.0004    0.0000    0.0000    0.0154
       62 O1     *f3+       0.0002    0.0023    0.0041    0.0000    0.0000   -0.0388   -0.0104    0.0000   -0.0000   -0.0613
       63 O1     *g4-      -0.0000   -0.0000   -0.0000   -0.0000   -0.0002    0.0000   -0.0000    0.0000    0.0012    0.0000
       64 O1     *g4-       0.0000    0.0000    0.0000   -0.0000   -0.0004   -0.0000    0.0000    0.0001    0.0069   -0.0000
       65 O1     *g3-       0.0000    0.0000   -0.0000    0.0000   -0.0000   -0.0000   -0.0000    0.0000   -0.0000    0.0000
       66 O1     *g3-      -0.0000    0.0000    0.0000   -0.0000   -0.0000   -0.0000    0.0000   -0.0000    0.0000   -0.0000
       67 O1     *g2-       0.0000    0.0000   -0.0000    0.0000    0.0001   -0.0000    0.0000   -0.0000   -0.0005   -0.0000
       68 O1     *g2-      -0.0000    0.0000   -0.0000    0.0000    0.0001    0.0000   -0.0000   -0.0000   -0.0026    0.0000
       69 O1     *g1-       0.0000    0.0000    0.0000    0.0000   -0.0000    0.0000    0.0000   -0.0000    0.0000   -0.0000
       70 O1     *g1-      -0.0000    0.0000   -0.0000    0.0000    0.0000   -0.0000    0.0000    0.0000    0.0000   -0.0000
       71 O1     *g0        0.0000    0.0001    0.0002   -0.0000    0.0000   -0.0009   -0.0003    0.0000   -0.0000    0.0016
       72 O1     *g0        0.0000    0.0003    0.0005    0.0000    0.0000   -0.0018    0.0019    0.0000    0.0000   -0.0057
       73 O1     *g1+       0.0000    0.0000    0.0000   -0.0002    0.0000   -0.0000    0.0000   -0.0010    0.0000   -0.0000
       74 O1     *g1+      -0.0000   -0.0000   -0.0000   -0.0003    0.0000    0.0000   -0.0000   -0.0055    0.0001    0.0000
       75 O1     *g2+      -0.0000   -0.0002   -0.0003   -0.0000    0.0000    0.0013    0.0005   -0.0000   -0.0000   -0.0025
       76 O1     *g2+      -0.0000   -0.0005   -0.0007   -0.0000   -0.0000    0.0027   -0.0028    0.0000    0.0000    0.0085
       77 O1     *g3+      -0.0000   -0.0000    0.0000    0.0002   -0.0000   -0.0000    0.0000    0.0009   -0.0000   -0.0000
       78 O1     *g3+       0.0000   -0.0000   -0.0000    0.0002   -0.0000    0.0000   -0.0000    0.0049   -0.0001    0.0000
       79 O1     *g4+       0.0000    0.0002    0.0004   -0.0000   -0.0000   -0.0017   -0.0006    0.0000    0.0000    0.0032
       80 O1     *g4+       0.0000    0.0006    0.0009   -0.0000    0.0000   -0.0036    0.0037   -0.0000   -0.0000   -0.0112
       81 H2     1s         0.0000    0.4180    0.6915    0.0000    0.0000   -0.0834    0.0352    0.0000    0.0000    0.1094
       82 H2     *s         0.0001   -0.0254   -0.0264   -0.0000   -0.0000    0.0764   -0.0056   -0.0000    0.0000    0.0809
       83 H2     *s        -0.0016   -0.1523   -0.1278   -0.0000   -0.0000    1.7152    1.4782   -0.0000   -0.0000   -1.2270
       84 H2     *s        -0.0013   -0.1259   -0.0912   -0.0000   -0.0000    4.2441    8.6644   -0.0000   -0.0000   -4.1482
       85 H2     *s        -0.0000   -0.0009    0.0040   -0.0000    0.0000    2.1778    1.0522   -0.0000   -0.0000   -1.1962
       86 H2     *px        0.0000   -0.0059   -0.0052    0.0000   -0.0000    0.0056   -0.0046   -0.0000   -0.0000   -0.0107
       87 H2     *px       -0.0003   -0.0103   -0.0085    0.0000    0.0000   -0.0854   -0.0005    0.0000    0.0000    0.0999
       88 H2     *px       -0.0006   -0.0086   -0.0181    0.0000   -0.0000   -0.6368   -0.9752    0.0000    0.0000    1.2073
       89 H2     *px       -0.0001   -0.0004    0.0080    0.0000   -0.0000   -1.3174   -2.3912    0.0000    0.0000    3.6094
       90 H2     *py       -0.0000   -0.0000    0.0000   -0.0001   -0.0038    0.0000   -0.0000    0.0001    0.0077    0.0000
       91 H2     *py        0.0000    0.0000   -0.0000   -0.0004   -0.0118    0.0000   -0.0000   -0.0007   -0.0442   -0.0000
       92 H2     *py        0.0000   -0.0000    0.0000   -0.0007   -0.0232    0.0000   -0.0000    0.0034    0.2147   -0.0000
       93 H2     *py        0.0000    0.0000   -0.0000   -0.0007   -0.0223    0.0000   -0.0000    0.0232    1.4723   -0.0000
       94 H2     *pz       -0.0000   -0.0000   -0.0000    0.0038   -0.0001    0.0000   -0.0000    0.0077   -0.0001    0.0000
       95 H2     *pz        0.0000    0.0000   -0.0000    0.0118   -0.0004   -0.0000    0.0000   -0.0442    0.0007    0.0000
       96 H2     *pz        0.0000    0.0000    0.0000    0.0232   -0.0007    0.0000   -0.0000    0.2147   -0.0034    0.0000
       97 H2     *pz       -0.0000    0.0000    0.0000    0.0223   -0.0007    0.0000   -0.0000    1.4723   -0.0232   -0.0000
       98 H2     *d2-       0.0000    0.0000    0.0000    0.0001    0.0018   -0.0000   -0.0000   -0.0000   -0.0013   -0.0000
       99 H2     *d2-      -0.0000   -0.0000    0.0000    0.0001    0.0033   -0.0000    0.0000    0.0006    0.0364    0.0000
      100 H2     *d2-      -0.0000   -0.0000   -0.0000    0.0001    0.0018    0.0000   -0.0000   -0.0042   -0.2673    0.0000
      101 H2     *d1-      -0.0000   -0.0000   -0.0000   -0.0000   -0.0000    0.0000   -0.0000    0.0000   -0.0000    0.0000
      102 H2     *d1-       0.0000   -0.0000   -0.0000    0.0000    0.0000   -0.0000    0.0000    0.0000    0.0000    0.0000
      103 H2     *d1-      -0.0000   -0.0000   -0.0000   -0.0000    0.0000    0.0000   -0.0000    0.0000   -0.0000    0.0000
      104 H2     *d0        0.0000   -0.0011   -0.0010   -0.0000   -0.0000   -0.0009    0.0024    0.0000   -0.0000   -0.0008
      105 H2     *d0       -0.0002   -0.0016   -0.0031    0.0000    0.0000   -0.0335   -0.0429    0.0000    0.0000    0.0847
      106 H2     *d0       -0.0003   -0.0016   -0.0036    0.0000    0.0000   -0.0535   -0.1539    0.0000    0.0000    0.3760
      107 H2     *d1+       0.0000    0.0000    0.0000   -0.0018    0.0001   -0.0000    0.0000   -0.0013    0.0000    0.0000
      108 H2     *d1+      -0.0000   -0.0000   -0.0000   -0.0033    0.0001   -0.0000   -0.0000    0.0364   -0.0006   -0.0000
      109 H2     *d1+      -0.0000   -0.0000   -0.0000   -0.0018    0.0001   -0.0000    0.0000   -0.2673    0.0042    0.0000
      110 H2     *d2+      -0.0000    0.0019    0.0017   -0.0000   -0.0000    0.0016   -0.0042   -0.0000   -0.0000    0.0014
      111 H2     *d2+       0.0003    0.0027    0.0054   -0.0000    0.0000    0.0580    0.0743   -0.0000   -0.0000   -0.1466
      112 H2     *d2+       0.0005    0.0027    0.0062   -0.0000    0.0000    0.0927    0.2666   -0.0000   -0.0000   -0.6513
      113 H2     *f3-       0.0000   -0.0000   -0.0000   -0.0000   -0.0010    0.0000   -0.0000   -0.0001   -0.0046    0.0000
      114 H2     *f3-       0.0000    0.0000   -0.0000    0.0000    0.0004   -0.0000    0.0000   -0.0000   -0.0001   -0.0000
      115 H2     *f2-      -0.0000    0.0000    0.0000    0.0000   -0.0000   -0.0000   -0.0000   -0.0000   -0.0000   -0.0000
      116 H2     *f2-      -0.0000    0.0000    0.0000   -0.0000   -0.0000    0.0000   -0.0000   -0.0000    0.0000   -0.0000
      117 H2     *f1-      -0.0000   -0.0000    0.0000    0.0000    0.0003   -0.0000    0.0000    0.0000    0.0012   -0.0000
      118 H2     *f1-       0.0000   -0.0000    0.0000   -0.0000   -0.0001   -0.0000    0.0000    0.0000    0.0000    0.0000
      119 H2     *f0        0.0000    0.0000   -0.0000   -0.0006    0.0000   -0.0000    0.0000    0.0029   -0.0000   -0.0000
      120 H2     *f0       -0.0000    0.0000   -0.0000    0.0002   -0.0000    0.0000   -0.0000    0.0000   -0.0000    0.0000
      121 H2     *f1+       0.0000    0.0006    0.0007   -0.0000   -0.0000    0.0038    0.0029   -0.0000   -0.0000   -0.0101
      122 H2     *f1+       0.0001    0.0004    0.0013   -0.0000   -0.0000    0.0006    0.0195    0.0000   -0.0000   -0.0565
      123 H2     *f2+       0.0000    0.0000   -0.0000    0.0008   -0.0000    0.0000   -0.0000   -0.0038    0.0001    0.0000
      124 H2     *f2+      -0.0000   -0.0000    0.0000   -0.0003    0.0000   -0.0000    0.0000   -0.0001    0.0000   -0.0000
      125 H2     *f3+      -0.0000   -0.0008   -0.0010    0.0000   -0.0000   -0.0049   -0.0038    0.0000    0.0000    0.0131
      126 H2     *f3+      -0.0001   -0.0005   -0.0016   -0.0000    0.0000   -0.0007   -0.0251    0.0000    0.0000    0.0730

          Orbital           11        12        13        14    
          Energy            0.4110    0.4110    0.4296    0.5867
          Occ. No.          0.0000    0.0000    0.0000    0.0000

        1 O1     1s        -0.0000   -0.0000   -0.0100    0.0029
        2 O1     2s        -0.0000   -0.0000   -0.2163    0.1615
        3 O1     *s        -0.0000   -0.0000   -0.0150   -0.0470
        4 O1     *s        -0.0000    0.0000   -0.5248    0.5098
        5 O1     *s         0.0000   -0.0000    1.3189    6.8594
        6 O1     *s         0.0000   -0.0000    6.7428   12.7843
        7 O1     2px        0.0000   -0.0000    0.0996    0.3950
        8 O1     *px       -0.0000    0.0000   -0.0644   -0.0198
        9 O1     *px        0.0000   -0.0000    0.1906    0.7291
       10 O1     *px        0.0000   -0.0000    4.1871    2.4566
       11 O1     *px        0.0000   -0.0000    1.9749    1.9392
       12 O1     2py       -0.0011   -0.1847   -0.0000   -0.0000
       13 O1     *py        0.0002    0.0382    0.0000   -0.0000
       14 O1     *py       -0.0018   -0.2934   -0.0000   -0.0000
       15 O1     *py       -0.0178   -2.8679   -0.0000   -0.0000
       16 O1     *py       -0.0091   -1.4649   -0.0000    0.0000
       17 O1     2pz       -0.1847    0.0011    0.0000    0.0000
       18 O1     *pz        0.0382   -0.0002   -0.0000   -0.0000
       19 O1     *pz       -0.2934    0.0018    0.0000    0.0000
       20 O1     *pz       -2.8679    0.0178    0.0000    0.0000
       21 O1     *pz       -1.4649    0.0091    0.0000    0.0000
       22 O1     *d2-      -0.0000   -0.0004   -0.0000   -0.0000
       23 O1     *d2-       0.0001    0.0105   -0.0000    0.0000
       24 O1     *d2-      -0.0032   -0.5081   -0.0000   -0.0000
       25 O1     *d2-      -0.0076   -1.2252   -0.0000    0.0000
       26 O1     *d1-       0.0000   -0.0000   -0.0000    0.0000
       27 O1     *d1-       0.0000    0.0000   -0.0000   -0.0000
       28 O1     *d1-      -0.0000   -0.0000   -0.0000    0.0000
       29 O1     *d1-       0.0000   -0.0000   -0.0000    0.0000
       30 O1     *d0       -0.0000   -0.0000   -0.0013    0.0018
       31 O1     *d0        0.0000   -0.0000    0.0142   -0.0200
       32 O1     *d0       -0.0000    0.0000   -0.2700   -0.0835
       33 O1     *d0       -0.0000    0.0000   -0.8118    0.0917
       34 O1     *d1+      -0.0004    0.0000    0.0000   -0.0000
       35 O1     *d1+       0.0105   -0.0001   -0.0000    0.0000
       36 O1     *d1+      -0.5081    0.0032    0.0000    0.0000
       37 O1     *d1+      -1.2252    0.0076    0.0000    0.0000
       38 O1     *d2+       0.0000   -0.0000    0.0022   -0.0031
       39 O1     *d2+      -0.0000    0.0000   -0.0246    0.0346
       40 O1     *d2+       0.0000   -0.0000    0.4677    0.1446
       41 O1     *d2+       0.0000   -0.0000    1.4061   -0.1588
       42 O1     *f3-       0.0000    0.0041    0.0000   -0.0000
       43 O1     *f3-      -0.0004   -0.0716   -0.0000   -0.0000
       44 O1     *f3-      -0.0017   -0.2776   -0.0000   -0.0000
       45 O1     *f2-       0.0000    0.0000   -0.0000    0.0000
       46 O1     *f2-      -0.0000    0.0000    0.0000   -0.0000
       47 O1     *f2-       0.0000   -0.0000   -0.0000    0.0000
       48 O1     *f1-      -0.0000   -0.0011    0.0000   -0.0000
       49 O1     *f1-       0.0001    0.0185   -0.0000    0.0000
       50 O1     *f1-       0.0004    0.0717    0.0000   -0.0000
       51 O1     *f0       -0.0026    0.0000    0.0000   -0.0000
       52 O1     *f0        0.0453   -0.0003   -0.0000   -0.0000
       53 O1     *f0        0.1756   -0.0011   -0.0000   -0.0000
       54 O1     *f1+       0.0000   -0.0000    0.0015   -0.0017
       55 O1     *f1+      -0.0000    0.0000   -0.0339   -0.0087
       56 O1     *f1+      -0.0000    0.0000   -0.1797    0.0727
       57 O1     *f2+       0.0033   -0.0000   -0.0000    0.0000
       58 O1     *f2+      -0.0585    0.0004    0.0000    0.0000
       59 O1     *f2+      -0.2267    0.0014    0.0000    0.0000
       60 O1     *f3+       0.0000    0.0000   -0.0020    0.0021
       61 O1     *f3+       0.0000   -0.0000    0.0437    0.0112
       62 O1     *f3+       0.0000   -0.0000    0.2319   -0.0939
       63 O1     *g4-      -0.0000   -0.0004    0.0000   -0.0000
       64 O1     *g4-      -0.0004   -0.0564   -0.0000    0.0000
       65 O1     *g3-      -0.0000    0.0000    0.0000   -0.0000
       66 O1     *g3-       0.0000   -0.0000   -0.0000    0.0000
       67 O1     *g2-       0.0000    0.0001   -0.0000    0.0000
       68 O1     *g2-       0.0001    0.0213    0.0000   -0.0000
       69 O1     *g1-      -0.0000   -0.0000   -0.0000    0.0000
       70 O1     *g1-       0.0000   -0.0000   -0.0000    0.0000
       71 O1     *g0        0.0000   -0.0000    0.0012    0.0020
       72 O1     *g0       -0.0000   -0.0000    0.0165   -0.0112
       73 O1     *g1+       0.0003   -0.0000    0.0000    0.0000
       74 O1     *g1+       0.0453   -0.0003   -0.0000   -0.0000
       75 O1     *g2+      -0.0000    0.0000   -0.0018   -0.0030
       76 O1     *g2+      -0.0000    0.0000   -0.0245    0.0168
       77 O1     *g3+      -0.0003    0.0000   -0.0000   -0.0000
       78 O1     *g3+      -0.0399    0.0002    0.0000   -0.0000
       79 O1     *g4+       0.0000    0.0000    0.0024    0.0040
       80 O1     *g4+       0.0000   -0.0000    0.0325   -0.0222
       81 H2     1s         0.0000   -0.0000    0.1924    0.0212
       82 H2     *s        -0.0000    0.0000   -0.4375    0.1173
       83 H2     *s        -0.0000    0.0000   -4.3603   -2.4541
       84 H2     *s        -0.0000    0.0000   -4.8945  -15.8087
       85 H2     *s        -0.0000    0.0000   -0.7169   -1.1253
       86 H2     *px       -0.0000   -0.0000   -0.0034   -0.0080
       87 H2     *px        0.0000   -0.0000    0.2429   -0.0107
       88 H2     *px        0.0000   -0.0000    0.2790    2.4450
       89 H2     *px       -0.0000    0.0000   -1.1739    5.4415
       90 H2     *py       -0.0000   -0.0047    0.0000   -0.0000
       91 H2     *py        0.0005    0.0838    0.0000    0.0000
       92 H2     *py        0.0098    1.5772    0.0000    0.0000
       93 H2     *py        0.0223    3.5981    0.0000    0.0000
       94 H2     *pz       -0.0047    0.0000    0.0000   -0.0000
       95 H2     *pz        0.0838   -0.0005   -0.0000    0.0000
       96 H2     *pz        1.5772   -0.0098   -0.0000   -0.0000
       97 H2     *pz        3.5981   -0.0223   -0.0000   -0.0000
       98 H2     *d2-       0.0001    0.0083   -0.0000    0.0000
       99 H2     *d2-      -0.0017   -0.2694   -0.0000   -0.0000
      100 H2     *d2-      -0.0072   -1.1615   -0.0000   -0.0000
      101 H2     *d1-      -0.0000    0.0000    0.0000   -0.0000
      102 H2     *d1-       0.0000   -0.0000   -0.0000    0.0000
      103 H2     *d1-      -0.0000    0.0000    0.0000   -0.0000
      104 H2     *d0        0.0000   -0.0000    0.0084   -0.0068
      105 H2     *d0       -0.0000    0.0000   -0.0122    0.1285
      106 H2     *d0       -0.0000    0.0000   -0.4364    0.6046
      107 H2     *d1+       0.0083   -0.0001   -0.0000    0.0000
      108 H2     *d1+      -0.2694    0.0017    0.0000    0.0000
      109 H2     *d1+      -1.1615    0.0072    0.0000    0.0000
      110 H2     *d2+      -0.0000   -0.0000   -0.0146    0.0118
      111 H2     *d2+       0.0000   -0.0000    0.0211   -0.2225
      112 H2     *d2+       0.0000   -0.0000    0.7558   -1.0472
      113 H2     *f3-       0.0002    0.0244    0.0000   -0.0000
      114 H2     *f3-       0.0011    0.1694    0.0000    0.0000
      115 H2     *f2-       0.0000    0.0000   -0.0000    0.0000
      116 H2     *f2-      -0.0000   -0.0000   -0.0000   -0.0000
      117 H2     *f1-      -0.0000   -0.0063   -0.0000    0.0000
      118 H2     *f1-      -0.0003   -0.0437   -0.0000   -0.0000
      119 H2     *f0       -0.0154    0.0001    0.0000    0.0000
      120 H2     *f0       -0.1071    0.0007    0.0000   -0.0000
      121 H2     *f1+      -0.0000    0.0000    0.0001   -0.0113
      122 H2     *f1+       0.0000   -0.0000    0.0982   -0.0705
      123 H2     *f2+       0.0199   -0.0001   -0.0000   -0.0000
      124 H2     *f2+       0.1383   -0.0009   -0.0000    0.0000
      125 H2     *f3+       0.0000    0.0000   -0.0002    0.0146
      126 H2     *f3+      -0.0000    0.0000   -0.1268    0.0910
--


++    Molecular charges:
      ------------------

      Mulliken charges per centre and basis function type
      ---------------------------------------------------

                O1      H2    
      1s       2.0012  1.2592
      2s       1.8736  0.0000
      2px      1.3153  0.0000
      2pz      1.6931  0.0000
      2py      1.6931  0.0000
      *s       0.0541 -0.5823
      *px      0.0368  0.0216
      *pz      0.2448  0.0556
      *py      0.2448  0.0556
      *d2+     0.0142 -0.0007
      *d1+     0.0015  0.0048
      *d0      0.0047 -0.0002
      *d1-     0.0000  0.0000
      *d2-     0.0015  0.0048
      *f3+     0.0016 -0.0002
      *f2+     0.0001  0.0000
      *f1+     0.0010 -0.0001
      *f0      0.0001  0.0000
      *f1-     0.0000  0.0000
      *f2-    -0.0000 -0.0000
      *f3-     0.0002  0.0001
      *g4+     0.0001  0.0000
      *g3+     0.0000  0.0000
      *g2+     0.0001  0.0000
      *g1+     0.0000  0.0000
      *g0      0.0000  0.0000
      *g1-     0.0000  0.0000
      *g2-     0.0000  0.0000
      *g3-     0.0000  0.0000
      *g4-     0.0000  0.0000
      Total    9.1818  0.8182

      N-E     -1.1818  0.1818

      Total electronic charge=   10.000000

      Total            charge=   -1.000000
--


++    Molecular properties:
      ---------------------

      Charge (e):
                      =   -1.0000
      Dipole Moment (Debye):
      Origin of the operator (Ang)=    0.0000    0.0000    0.0000
                   X=  9.1890E-01               Y= -3.7130E-14               Z= -1.4317E-14           Total=  9.1890E-01
      Center of Charge (Ang)
                     X=   -0.19131068               Y=    0.00000000               Z=    0.00000000
      Quadrupole Moment (Debye*Ang):
      Origin of the operator (Ang)=    0.0593    0.0000    0.0000
                  XX= -7.6763E+00              XY=  9.0311E-15              XZ=  1.3801E-14              YY= -1.0087E+01
                  YZ=  7.2260E-16              ZZ= -1.0087E+01
      In traceless form (Debye*Ang)
                  XX=  2.4108E+00              XY=  1.3547E-14              XZ=  2.0701E-14              YY= -1.2054E+00
                  YZ=  1.0839E-15              ZZ= -1.2054E+00
--


      Input file to MOLDEN was generated!

 ###############################################################################
 ###############################################################################
 ###                                                                         ###
 ###                                                                         ###
 ###    WARNING: RunFile label nBas                                          ###
 ###    was used       59 times                                              ###
 ###                                                                         ###
 ###                                                                         ###
 ###############################################################################
 ###############################################################################
--- Stop Module: scf at Tue May  7 13:32:19 2024 /rc=_RC_ALL_IS_WELL_ ---
*** files: 0507.scf.molden 0507.ScfOrb xmldump
    saved to directory /home/kenya/molcas_test/0507
--- Module scf spent 11 seconds ---

*** symbolic link created: INPORB -> 0507.UnaOrb
--- Start Module: gateway at Tue May  7 13:32:19 2024 ---

()()()()()()()()()()()()()()()()()()()()()()()()()()()()()()()()()()()()()()()()()()()()()()()()()()

                                              &GATEWAY

                                   only a single process is used
                       available to each process: 2.0 GB of memory, 1 thread
                                             pid: 23169
()()()()()()()()()()()()()()()()()()()()()()()()()()()()()()()()()()()()()()()()()()()()()()()()()()


++    Symmetry information:
      ---------------------

                    Character Table for C1 

                             E  
                    a        1  x, y, xy, Rz, z, xz, Ry, yz, Rx, I
--


++    Basis set information:
      ----------------------


      Basis set label: O.AUG-CC-PVQZ.........

      Electronic valence basis set:
      ------------------
      Associated Effective Charge   8.000000 au
      Associated Actual Charge      8.000000 au
      Nuclear Model: Point charge

      Shell  nPrim  nBasis  Cartesian Spherical Contaminant
         s      13       6        X                  
         p       7       5        X                  
         d       4       4                 X         
         f       3       3                 X         
         g       2       2                 X         


      Basis set label: H.AUG-CC-PVQZ.........

      Electronic valence basis set:
      ------------------
      Associated Effective Charge   1.000000 au
      Associated Actual Charge      1.000000 au
      Nuclear Model: Point charge

      Shell  nPrim  nBasis  Cartesian Spherical Contaminant
         s       7       5        X                  
         p       4       4        X                  
         d       3       3                 X         
         f       2       2                 X         
--


++    Molecular structure info:
      -------------------------

                    ************************************************ 
                    **** Cartesian Coordinates / Bohr, Angstrom **** 
                    ************************************************ 

     Center  Label                x              y              z                     x              y              z
        1      O1               0.000000       0.000000       0.000000              0.000000       0.000000       0.000000
        2      H2               1.889726       0.000000       0.000000              1.000000       0.000000       0.000000
--


            Nuclear Potential Energy              4.23341769 au

--- Stop Module: gateway at Tue May  7 13:32:19 2024 /rc=_RC_ALL_IS_WELL_ ---
*** files: xmldump
    saved to directory /home/kenya/molcas_test/0507

*** symbolic link created: INPORB -> 0507.UnaOrb
--- Start Module: seward at Tue May  7 13:32:19 2024 ---

()()()()()()()()()()()()()()()()()()()()()()()()()()()()()()()()()()()()()()()()()()()()()()()()()()

                                              &SEWARD

                                   only a single process is used
                       available to each process: 2.0 GB of memory, 1 thread
                                             pid: 23172
()()()()()()()()()()()()()()()()()()()()()()()()()()()()()()()()()()()()()()()()()()()()()()()()()()

               SEWARD will generate:
                  Multipole Moment integrals up to order  2
                  Kinetic Energy integrals
                  Nuclear Attraction integrals (point charge)
                  One-Electron Hamiltonian integrals
                  Velocity integrals
                  Orbital angular momentum around ( 0.1120  0.0000  0.0000 )
                  Velocity quadrupole around ( 0.1120  0.0000  0.0000 )
                  Two-Electron Repulsion integrals

                   Integrals are discarded if absolute value <: 1.00E-14
                   Integral cutoff threshold is set to       <: 1.00E-16

            Nuclear Potential Energy              4.23341769 au


      Basis set specifications :
      Symmetry species         a  
      Basis functions          126


      Input file to MOLDEN was generated!

--- Stop Module: seward at Tue May  7 13:32:24 2024 /rc=_RC_ALL_IS_WELL_ ---
*** files: 0507.GssOrb 0507.guessorb.molden xmldump
    saved to directory /home/kenya/molcas_test/0507
--- Module seward spent 4 seconds ---

*** symbolic link created: INPORB -> 0507.UhfOrb
--- Start Module: scf at Tue May  7 13:32:24 2024 ---

()()()()()()()()()()()()()()()()()()()()()()()()()()()()()()()()()()()()()()()()()()()()()()()()()()

                                                &SCF

                                   only a single process is used
                       available to each process: 2.0 GB of memory, 1 thread
                                             pid: 23226
()()()()()()()()()()()()()()()()()()()()()()()()()()()()()()()()()()()()()()()()()()()()()()()()()()

++    Input section:
      --------------

      Header of the integral files:
      
       Integrals generated by Gateway/Seward, Tue May  7 13:32:20 2024


      Cartesian coordinates in Angstrom:
      -----------------------------------------------------
      No.  Label        X            Y            Z        
      -----------------------------------------------------
       1   O1         0.00000000   0.00000000   0.00000000
       2   H2         1.00000000   0.00000000   0.00000000
      -----------------------------------------------------
      Nuclear repulsion energy =    4.23341769
--

++    Orbital specifications:
      -----------------------

      Symmetry species               1
                                     a
      Frozen orbitals                0
      Start temperature = 0.500
      End temperature   = 0.010
      Temperature Factor= 0.460
      Deleted orbitals               0
      Total number of orbitals     126
      Number of basis functions    126
--

      Molecular charge                           0.000

++    Optimization specifications:
      ----------------------------

      SCF Algorithm: Conventional USCF
      D(i)-D(i-1) density differences are used
      Number of density matrices in core                 5
      Maximum number of NDDO SCF iterations            400
      Maximum number of HF SCF iterations              400
      Threshold for SCF energy change             1.00E-09
      Threshold for density matrix                1.00E-04
      Threshold for Fock matrix                   1.50E-04
      Threshold for linear dependence             1.00E-09
      Threshold at which DIIS is turned on        1.50E-01
      Maximum depth in the DIIS procedure                5
      Maximum depth in the BFGS Hessian update          30
      Threshold at which QNR/C2DIIS is turned on  7.50E-02
      Threshold for Norm(delta) (QNR/C2DIIS)      1.00E-03
      All orbitals punched on: UHFORB
--

      Detected guessorb starting orbitals                                             


++ Convergence information
                               UHF SCF        iterations: Energy and convergence statistics

Iter     Tot. SCF        One-elec.       Two-elec.     Energy      Max Dij or  Max Fij      DNorm      TNorm      AccCon     Time
         Energy          Energy          Energy        Change      Delta Norm                                                in Sec.
   1   -74.080960220  -110.546377919    32.232000012   0.00E+00    9.30E-02*   2.92E+00*    6.80E+00   7.67E+01   None         1.
   2   -73.706250173  -105.650674244    27.711006384   3.75E-01*   9.30E-02*   7.13E-13     8.84E+01   7.06E+01   EDIIS        1.
   3   -75.011808873  -111.952679844    32.707453284  -1.31E+00*   7.31E-02*   1.39E-01*    7.86E+00   7.68E+01   EDIIS        1.
   4   -75.264721620  -112.151737456    32.653598149  -2.53E-01*   4.52E-02*   5.45E-02*    8.63E+00   7.74E+01   EDIIS        1.
   5   -75.273944279  -112.158909219    32.651547253  -9.22E-03*   2.23E-02*   8.31E-03*    2.58E-01   7.73E+01   EDIIS        1.
   6   -75.274990594  -112.113760733    32.605352452  -1.05E-03*   9.26E-03*   4.06E-03*    7.43E-02   7.73E+01   EDIIS        1.
   7   -75.275273826  -112.127674164    32.618982650  -2.83E-04*   6.20E-03*   2.66E-03*    4.32E-02   7.73E+01   EDIIS        1.
   8   -75.275356306  -112.110158498    32.601384505  -8.25E-05*   2.41E-03*   1.32E-03*    2.02E-02   7.73E+01   EDIIS        1.
   9   -75.275381002  -112.116541795    32.607743106  -2.47E-05*   1.87E-03*   8.34E-04*    1.32E-02   7.73E+01   EDIIS        1.
  10   -75.275388729  -112.109815062    32.601008646  -7.73E-06*   6.74E-04*   4.33E-04*    6.21E-03   7.73E+01   EDIIS        1.
  11   -75.316650873  -112.112936884    32.562868324  -4.13E-02*   8.55E-02*   2.61E-02*    4.09E-01   7.73E+01   EDIIS        1.
  12   -75.415527498  -112.363087200    32.714142015  -9.89E-02*   9.42E-02*   3.76E-02*    3.99E-01   7.75E+01   EDIIS        1.
  13   -75.421798350  -112.413922247    32.758706209  -6.27E-03*   4.79E-02*   1.65E-02*    1.82E-01   7.76E+01   EDIIS        1.

       Fermi aufbau procedure completed!
      nOcc(alpha)=    5
      nOcc(beta) =    4

  14   -75.423705995  -112.425380215    32.768256533  -1.91E-03*   2.52E-02*   9.78E-03*    1.08E-01   7.76E+01   EDIIS        1.
  15   -75.424347525  -112.432741300    32.774976087  -6.42E-04*   1.34E-02*   5.73E-03*    6.51E-02   7.76E+01   EDIIS        1.
  16   -75.424573066  -112.434440308    32.776449555  -2.26E-04*   7.43E-03*   3.40E-03*    3.95E-02   7.76E+01   EDIIS        1.
  17   -75.424654808  -112.435991349    32.777918854  -8.17E-05*   4.18E-03*   2.00E-03*    2.40E-02   7.76E+01   EDIIS        1.
  18   -75.424685283  -112.436387115    32.778284144  -3.05E-05*   5.99E-04*   3.14E-03*    1.47E-02   7.76E+01   c2DIIS       1.
  19   -75.424704511  -112.437375160    32.779252962  -1.92E-05*   8.07E-04    1.80E-04*    2.13E-03   7.76E+01   QNRc2DIIS    1.
  20   -75.424704808  -112.437165453    32.779042958  -2.97E-07*   1.75E-03*   1.26E-04     1.37E-03   7.76E+01   QNRc2DIIS    1.
  21   -75.424705077  -112.437442873    32.779320108  -2.69E-07*   1.45E-04    2.88E-05     2.96E-03   7.76E+01   QNRc2DIIS    1.
  22   -75.424705085  -112.437166399    32.779043627  -7.20E-09*   1.74E-04    2.09E-05     2.69E-04   7.76E+01   QNRc2DIIS    1.
  23   -75.424705088  -112.437253441    32.779130666  -3.56E-09*   2.48E-05    3.35E-06     2.87E-04   7.76E+01   QNRc2DIIS    1.
  24   -75.424705088  -112.437258009    32.779135234  -1.12E-10    3.25E-06    4.26E-07     5.33E-05   7.76E+01   QNRc2DIIS    1.

       Convergence after  24 Macro Iterations
--

 *****************************************************************************************************************************
 *                                                                                                                           *
 *                                             SCF/KS-DFT Program, Final results                                             *
 *                                                                                                                           *
 *                                                                                                                           *
 *                                                                                                                           *
 *                                                       Final Results                                                       *
 *                                                                                                                           *
 *****************************************************************************************************************************

::    Total SCF energy                                -75.4247050882
      One-electron energy                            -112.4372580090
      Two-electron energy                              32.7791352336
      Nuclear repulsion energy                          4.2334176872
      Kinetic energy (interpolated)                    75.3320117153
      Virial theorem                                    1.0012304646
      Total spin, S(S+1)                                0.7576278508
      Total spin, S                                     0.5038066800
      Max non-diagonal density matrix element           0.0000013970
      Max non-diagonal Fock matrix element              0.0000002527


      All orbitals with orbital energies smaller than  E(LUMO)+0.5 are printed

++    Molecular orbitals:
      -------------------

      Title: UHF orbitals (alpha)

      Molecular orbitals for symmetry species 1: a  

          Orbital            1         2         3         4         5         6         7         8         9        10    
          Energy          -20.6411   -1.3810   -0.6743   -0.6578   -0.5606    0.0272    0.1128    0.1310    0.1385    0.1602
          Occ. No.          1.0000    1.0000    1.0000    1.0000    1.0000    0.0000    0.0000    0.0000    0.0000    0.0000

        1 O1     1s         0.9991   -0.0016   -0.0020   -0.0000    0.0000    0.0011   -0.0023   -0.0000   -0.0000   -0.0155
        2 O1     2s         0.0000    0.9529   -0.2620   -0.0000   -0.0000   -0.0848    0.0294   -0.0000   -0.0000   -0.2441
        3 O1     *s         0.0022   -0.0027   -0.0027   -0.0000    0.0000    0.0127    0.0059   -0.0000   -0.0000   -0.0662
        4 O1     *s        -0.0027   -0.0117   -0.0343   -0.0000   -0.0000   -0.0514   -0.0619    0.0000    0.0000    0.3729
        5 O1     *s         0.0030   -0.0111   -0.1071    0.0000    0.0000   -0.8372   -2.3240    0.0000    0.0000    1.5452
        6 O1     *s         0.0013    0.0237   -0.0087   -0.0000   -0.0000   -2.4692   -6.9397    0.0000    0.0000    3.6328
        7 O1     2px        0.0071    0.0949    0.7966    0.0000   -0.0000   -0.0882    0.1971   -0.0000   -0.0000   -0.1014
        8 O1     *px       -0.0029    0.0019   -0.0014   -0.0000   -0.0000    0.0085    0.0149   -0.0000   -0.0000   -0.0069
        9 O1     *px       -0.0032    0.0104   -0.0151    0.0000   -0.0000   -0.1181   -0.2397    0.0000    0.0000    0.3035
       10 O1     *px        0.0007    0.0085   -0.0345    0.0000   -0.0000   -0.6782   -1.1386    0.0000    0.0000    0.7594
       11 O1     *px        0.0004    0.0041    0.0090   -0.0000   -0.0000   -0.4385   -2.2779    0.0000   -0.0000   -0.8565
       12 O1     2py       -0.0000    0.0000    0.0000   -0.1856    0.9483   -0.0000   -0.0000   -0.0323    0.1782    0.0000
       13 O1     *py       -0.0000   -0.0000   -0.0000   -0.0006   -0.0025    0.0000   -0.0000   -0.0022    0.0113    0.0000
       14 O1     *py        0.0000    0.0000    0.0000   -0.0004   -0.0017    0.0000    0.0000   -0.0014    0.0025   -0.0000
       15 O1     *py        0.0000   -0.0000   -0.0000    0.0050    0.0087    0.0000    0.0000   -0.0403    0.2029   -0.0000
       16 O1     *py        0.0000    0.0000    0.0000   -0.0012    0.0157   -0.0000   -0.0000    0.2913   -1.5744    0.0000
       17 O1     2pz       -0.0000   -0.0000   -0.0000    0.9697    0.1815    0.0000   -0.0000    0.1689    0.0341   -0.0000
       18 O1     *pz        0.0000    0.0000   -0.0000    0.0031   -0.0005   -0.0000   -0.0000    0.0112    0.0022    0.0000
       19 O1     *pz       -0.0000   -0.0000   -0.0000    0.0023   -0.0003   -0.0000    0.0000    0.0074    0.0005   -0.0000
       20 O1     *pz       -0.0000    0.0000    0.0000   -0.0261    0.0017   -0.0000    0.0000    0.2108    0.0388   -0.0000
       21 O1     *pz       -0.0000    0.0000    0.0000    0.0063    0.0030   -0.0000    0.0000   -1.5222   -0.3013   -0.0000
       22 O1     *d2-      -0.0000    0.0000    0.0000   -0.0003    0.0016    0.0000   -0.0000   -0.0001    0.0007   -0.0000
       23 O1     *d2-      -0.0000   -0.0000    0.0000   -0.0015    0.0076   -0.0000    0.0000    0.0003   -0.0013   -0.0000
       24 O1     *d2-       0.0000    0.0000    0.0000   -0.0016    0.0090    0.0000   -0.0000   -0.0180    0.0942   -0.0000
       25 O1     *d2-       0.0000   -0.0000   -0.0000   -0.0005    0.0034   -0.0000   -0.0000    0.0352   -0.2022    0.0000
       26 O1     *d1-      -0.0003   -0.0007    0.0002   -0.0000    0.0000    0.0001   -0.0000   -0.0000    0.0000    0.0002
       27 O1     *d1-       0.0001   -0.0038    0.0012    0.0000   -0.0000    0.0003   -0.0001    0.0000   -0.0000    0.0007
       28 O1     *d1-      -0.0001   -0.0034    0.0014   -0.0000    0.0000    0.0005   -0.0004   -0.0000    0.0000    0.0008
       29 O1     *d1-       0.0000   -0.0001    0.0005   -0.0000    0.0000   -0.0019   -0.0008   -0.0000    0.0000   -0.0035
       30 O1     *d0        0.0007    0.0017   -0.0026   -0.0000    0.0000   -0.0003   -0.0008    0.0000    0.0000    0.0000
       31 O1     *d0       -0.0001    0.0082   -0.0107   -0.0000    0.0000    0.0009    0.0056   -0.0000   -0.0000   -0.0120
       32 O1     *d0       -0.0000    0.0027   -0.0159   -0.0000    0.0000    0.0427    0.0397   -0.0000   -0.0000   -0.0831
       33 O1     *d0       -0.0004   -0.0030   -0.0053   -0.0000    0.0000    0.0763    0.1329   -0.0000   -0.0000    0.0768
       34 O1     *d1+       0.0000   -0.0000   -0.0000    0.0016    0.0003   -0.0000    0.0000    0.0006    0.0001   -0.0000
       35 O1     *d1+      -0.0000   -0.0000   -0.0000    0.0078    0.0015   -0.0000   -0.0000   -0.0014   -0.0002    0.0000
       36 O1     *d1+      -0.0000    0.0000    0.0000    0.0085    0.0017   -0.0000    0.0000    0.0940    0.0180   -0.0000
       37 O1     *d1+      -0.0000    0.0000    0.0000    0.0027    0.0007   -0.0000    0.0000   -0.1841   -0.0387   -0.0000
       38 O1     *d2+       0.0001    0.0006    0.0033    0.0000    0.0000    0.0002    0.0016   -0.0000   -0.0000   -0.0009
       39 O1     *d2+      -0.0003    0.0051    0.0125    0.0000   -0.0000   -0.0031   -0.0092   -0.0000    0.0000    0.0170
       40 O1     *d2+       0.0004    0.0123    0.0203    0.0000    0.0000   -0.0768   -0.0670    0.0000    0.0000    0.1398
       41 O1     *d2+       0.0007    0.0055    0.0066    0.0000   -0.0000   -0.1224   -0.2259    0.0000   -0.0000   -0.1154
       42 O1     *f3-       0.0000    0.0000   -0.0000   -0.0002    0.0010   -0.0000   -0.0000    0.0004   -0.0021    0.0000
       43 O1     *f3-      -0.0000   -0.0000    0.0000   -0.0004    0.0022   -0.0000    0.0000   -0.0049    0.0260   -0.0000
       44 O1     *f3-       0.0000    0.0000    0.0000   -0.0001    0.0005    0.0000   -0.0000    0.0003   -0.0027    0.0000
       45 O1     *f2-      -0.0000   -0.0001   -0.0007   -0.0000   -0.0000    0.0001   -0.0002    0.0000    0.0000    0.0001
       46 O1     *f2-       0.0000   -0.0003   -0.0016    0.0000    0.0000    0.0002   -0.0004   -0.0000   -0.0000    0.0002
       47 O1     *f2-      -0.0000   -0.0002   -0.0008   -0.0000    0.0000    0.0000   -0.0004    0.0000    0.0000    0.0002
       48 O1     *f1-      -0.0000    0.0000    0.0000   -0.0015    0.0021    0.0000   -0.0000   -0.0003    0.0009    0.0000
       49 O1     *f1-       0.0000   -0.0000   -0.0000   -0.0032    0.0047    0.0000    0.0000    0.0005   -0.0054    0.0000
       50 O1     *f1-      -0.0000   -0.0000    0.0000   -0.0019    0.0034   -0.0000   -0.0000    0.0011   -0.0009   -0.0000
       51 O1     *f0        0.0000   -0.0000   -0.0000    0.0024    0.0011    0.0000   -0.0000    0.0018    0.0005   -0.0000
       52 O1     *f0        0.0000    0.0000   -0.0000    0.0053    0.0025    0.0000   -0.0000   -0.0145   -0.0024    0.0000
       53 O1     *f0        0.0000   -0.0000   -0.0000    0.0036    0.0018    0.0000   -0.0000   -0.0015   -0.0005    0.0000
       54 O1     *f1+      -0.0000   -0.0000    0.0011    0.0000   -0.0000   -0.0001    0.0010    0.0000   -0.0000   -0.0010
       55 O1     *f1+      -0.0000   -0.0012    0.0021   -0.0000   -0.0000    0.0052    0.0026   -0.0000   -0.0000   -0.0133
       56 O1     *f1+      -0.0001   -0.0018   -0.0003   -0.0000    0.0000    0.0145    0.0070   -0.0000    0.0000    0.0047
       57 O1     *f2+      -0.0000    0.0000   -0.0000    0.0007    0.0010   -0.0000   -0.0000   -0.0017   -0.0002    0.0000
       58 O1     *f2+      -0.0000   -0.0000    0.0000    0.0014    0.0021   -0.0000    0.0000    0.0208    0.0045   -0.0000
       59 O1     *f2+      -0.0000    0.0000    0.0000    0.0001    0.0013   -0.0000    0.0000   -0.0011   -0.0010   -0.0000
       60 O1     *f3+       0.0000    0.0005    0.0014    0.0000    0.0000   -0.0002   -0.0006   -0.0000   -0.0000    0.0009
       61 O1     *f3+       0.0000    0.0028    0.0038    0.0000   -0.0000   -0.0074   -0.0019    0.0000    0.0000    0.0164
       62 O1     *f3+       0.0002    0.0031    0.0037    0.0000   -0.0000   -0.0188   -0.0073    0.0000   -0.0000   -0.0068
       63 O1     *g4-      -0.0000    0.0000   -0.0000   -0.0000    0.0002    0.0000   -0.0000   -0.0002    0.0009    0.0000
       64 O1     *g4-       0.0000    0.0000    0.0000    0.0000   -0.0002    0.0000   -0.0000   -0.0020    0.0108   -0.0000
       65 O1     *g3-       0.0000   -0.0000   -0.0001   -0.0000    0.0000    0.0000    0.0000   -0.0000    0.0000    0.0000
       66 O1     *g3-      -0.0000   -0.0001   -0.0001   -0.0000    0.0000   -0.0000   -0.0001    0.0000    0.0000   -0.0001
       67 O1     *g2-       0.0000   -0.0000   -0.0000   -0.0000    0.0000   -0.0000    0.0000    0.0001   -0.0003   -0.0000
       68 O1     *g2-      -0.0000   -0.0000   -0.0000   -0.0002    0.0003    0.0000   -0.0000    0.0007   -0.0040    0.0000
       69 O1     *g1-      -0.0000   -0.0000    0.0000    0.0000   -0.0000    0.0000   -0.0000    0.0000    0.0000    0.0000
       70 O1     *g1-       0.0000   -0.0000    0.0001   -0.0000   -0.0000    0.0000    0.0000   -0.0000   -0.0000    0.0000
       71 O1     *g0        0.0000    0.0001   -0.0000   -0.0000   -0.0000   -0.0004   -0.0004   -0.0000    0.0000    0.0012
       72 O1     *g0       -0.0000    0.0003    0.0002    0.0000   -0.0000   -0.0010    0.0014    0.0000   -0.0000   -0.0013
       73 O1     *g1+      -0.0000   -0.0000   -0.0000   -0.0000    0.0000    0.0000    0.0000   -0.0007   -0.0001   -0.0000
       74 O1     *g1+       0.0000    0.0000   -0.0000    0.0005    0.0001    0.0000   -0.0000   -0.0085   -0.0016    0.0000
       75 O1     *g2+      -0.0000   -0.0001   -0.0001   -0.0000    0.0000    0.0006    0.0006   -0.0000   -0.0000   -0.0018
       76 O1     *g2+       0.0000   -0.0005   -0.0004   -0.0000    0.0000    0.0014   -0.0021   -0.0000   -0.0000    0.0018
       77 O1     *g3+       0.0000   -0.0000    0.0000    0.0002    0.0001   -0.0000   -0.0000    0.0006    0.0001    0.0000
       78 O1     *g3+      -0.0000   -0.0000    0.0000   -0.0001    0.0001   -0.0000    0.0000    0.0075    0.0015   -0.0000
       79 O1     *g4+       0.0000    0.0002    0.0003   -0.0000   -0.0000   -0.0008   -0.0008    0.0000    0.0000    0.0024
       80 O1     *g4+       0.0000    0.0009    0.0009    0.0000   -0.0000   -0.0018    0.0030    0.0000   -0.0000   -0.0020
       81 H2     1s         0.0004    0.3764    0.6615    0.0000   -0.0000   -0.0034   -0.0640   -0.0000    0.0000    0.2145
       82 H2     *s        -0.0001   -0.0272   -0.0252   -0.0000   -0.0000    0.0357   -0.0040   -0.0000   -0.0000   -0.0095
       83 H2     *s        -0.0025   -0.1629   -0.1166   -0.0000    0.0000    0.8013    1.2883   -0.0000   -0.0000   -1.2329
       84 H2     *s        -0.0017   -0.1333   -0.1643    0.0000    0.0000    1.8969    6.7338   -0.0000   -0.0000   -2.0205
       85 H2     *s        -0.0000   -0.0008   -0.0014   -0.0000    0.0000    1.6366    1.4004   -0.0000   -0.0000   -1.2713
       86 H2     *px        0.0000   -0.0061   -0.0064   -0.0000    0.0000    0.0043   -0.0030   -0.0000   -0.0000   -0.0068
       87 H2     *px       -0.0001   -0.0086   -0.0135    0.0000   -0.0000   -0.0372   -0.0216    0.0000    0.0000    0.1072
       88 H2     *px       -0.0005   -0.0074   -0.0360    0.0000    0.0000   -0.2704   -0.8390    0.0000    0.0000    0.7241
       89 H2     *px       -0.0001    0.0032    0.0001   -0.0000   -0.0000   -0.5279   -2.1999    0.0000    0.0000    2.1475
       90 H2     *py       -0.0000    0.0000   -0.0000   -0.0006    0.0034    0.0000   -0.0000   -0.0010    0.0055    0.0000
       91 H2     *py       -0.0000   -0.0000   -0.0000   -0.0023    0.0127   -0.0000   -0.0000    0.0077   -0.0408    0.0000
       92 H2     *py       -0.0000    0.0000    0.0000   -0.0047    0.0273    0.0000    0.0000    0.0081   -0.0301   -0.0000
       93 H2     *py       -0.0000    0.0000    0.0000   -0.0009    0.0089    0.0000   -0.0000   -0.1020    0.6092   -0.0000
       94 H2     *pz       -0.0000    0.0000   -0.0000    0.0032    0.0007    0.0000   -0.0000    0.0052    0.0010   -0.0000
       95 H2     *pz        0.0000   -0.0000    0.0000    0.0120    0.0024    0.0000   -0.0000   -0.0402   -0.0078    0.0000
       96 H2     *pz        0.0000   -0.0000   -0.0000    0.0247    0.0052    0.0000   -0.0000   -0.0426   -0.0058    0.0000
       97 H2     *pz        0.0000    0.0000   -0.0000    0.0048    0.0017    0.0000   -0.0000    0.5332    0.1166    0.0000
       98 H2     *d2-      -0.0000   -0.0000    0.0000    0.0003   -0.0018   -0.0000    0.0000    0.0003   -0.0018   -0.0000
       99 H2     *d2-       0.0000    0.0000    0.0000    0.0012   -0.0062    0.0000   -0.0000   -0.0103    0.0541   -0.0000
      100 H2     *d2-       0.0000   -0.0000   -0.0000    0.0012   -0.0063   -0.0000    0.0000    0.0073   -0.0542    0.0000
      101 H2     *d1-      -0.0000   -0.0000   -0.0000    0.0000   -0.0000   -0.0000    0.0000    0.0000   -0.0000    0.0000
      102 H2     *d1-       0.0000   -0.0000   -0.0003    0.0000    0.0000    0.0000    0.0000   -0.0000   -0.0000   -0.0002
      103 H2     *d1-       0.0000    0.0001   -0.0004    0.0000   -0.0000   -0.0005    0.0022    0.0000   -0.0000    0.0002
      104 H2     *d0        0.0000   -0.0010   -0.0011    0.0000   -0.0000   -0.0003    0.0015    0.0000    0.0000    0.0012
      105 H2     *d0       -0.0002   -0.0012   -0.0031   -0.0000   -0.0000   -0.0148   -0.0399    0.0000    0.0000    0.0495
      106 H2     *d0       -0.0004   -0.0022   -0.0020    0.0000   -0.0000   -0.0184   -0.1469   -0.0000    0.0000    0.1721
      107 H2     *d1+       0.0000   -0.0000    0.0000   -0.0018   -0.0004   -0.0000    0.0000   -0.0017   -0.0003    0.0000
      108 H2     *d1+      -0.0000    0.0000   -0.0000   -0.0063   -0.0012   -0.0000    0.0000    0.0536    0.0103   -0.0000
      109 H2     *d1+      -0.0000   -0.0000    0.0000   -0.0064   -0.0012   -0.0000    0.0000   -0.0382   -0.0104   -0.0000
      110 H2     *d2+      -0.0000    0.0019    0.0020    0.0000    0.0000    0.0006   -0.0027   -0.0000   -0.0000   -0.0021
      111 H2     *d2+       0.0003    0.0022    0.0068   -0.0000   -0.0000    0.0254    0.0690   -0.0000   -0.0000   -0.0850
      112 H2     *d2+       0.0005    0.0032    0.0056    0.0000   -0.0000    0.0342    0.2435    0.0000   -0.0000   -0.2990
      113 H2     *f3-      -0.0000   -0.0000   -0.0000   -0.0003    0.0014    0.0000   -0.0000    0.0011   -0.0058    0.0000
      114 H2     *f3-      -0.0000    0.0000    0.0000   -0.0002    0.0007    0.0000   -0.0000    0.0040   -0.0195    0.0000
      115 H2     *f2-       0.0000    0.0000    0.0000   -0.0000   -0.0000    0.0000    0.0000    0.0000   -0.0000    0.0000
      116 H2     *f2-      -0.0000   -0.0001    0.0001   -0.0000    0.0000   -0.0000   -0.0004   -0.0000    0.0000   -0.0003
      117 H2     *f1-      -0.0000    0.0000    0.0000    0.0001   -0.0003   -0.0000    0.0000   -0.0003    0.0015   -0.0000
      118 H2     *f1-       0.0000   -0.0000    0.0000   -0.0001    0.0000   -0.0000    0.0000   -0.0009    0.0048   -0.0000
      119 H2     *f0       -0.0000   -0.0000   -0.0000   -0.0009   -0.0002   -0.0000   -0.0000    0.0036    0.0007   -0.0000
      120 H2     *f0       -0.0000   -0.0000   -0.0000   -0.0004    0.0000   -0.0000    0.0000    0.0129    0.0023   -0.0000
      121 H2     *f1+      -0.0000    0.0005    0.0007   -0.0000   -0.0000    0.0017    0.0033   -0.0000   -0.0000   -0.0065
      122 H2     *f1+       0.0002    0.0006    0.0007   -0.0000    0.0000   -0.0007    0.0201    0.0000   -0.0000   -0.0218
      123 H2     *f2+       0.0000    0.0000   -0.0000    0.0012    0.0002    0.0000   -0.0000   -0.0046   -0.0009    0.0000
      124 H2     *f2+       0.0000    0.0000    0.0000    0.0008    0.0002    0.0000    0.0000   -0.0171   -0.0031    0.0000
      125 H2     *f3+      -0.0000   -0.0009   -0.0011   -0.0000   -0.0000   -0.0022   -0.0043    0.0000    0.0000    0.0083
      126 H2     *f3+      -0.0001   -0.0003   -0.0013    0.0000    0.0000    0.0010   -0.0244   -0.0000    0.0000    0.0293

          Orbital           11        12        13        14        15        16        17    
          Energy            0.2118    0.2163    0.2206    0.3411    0.4724    0.4738    0.5043
          Occ. No.          0.0000    0.0000    0.0000    0.0000    0.0000    0.0000    0.0000

        1 O1     1s         0.0000    0.0000   -0.0073    0.0012    0.0039   -0.0000    0.0216
        2 O1     2s        -0.0000    0.0000   -0.1715    0.1513    0.0220   -0.0000    0.0715
        3 O1     *s         0.0000    0.0000   -0.0047   -0.0507    0.0157   -0.0000    0.0826
        4 O1     *s        -0.0000    0.0000   -0.4827    0.5360   -0.1955    0.0000   -0.8486
        5 O1     *s        -0.0000   -0.0000    0.6009    5.8042    0.7837   -0.0000    3.2816
        6 O1     *s        -0.0000   -0.0000    5.6429   12.4826    1.8655   -0.0000    7.3179
        7 O1     2px        0.0000   -0.0000    0.1024    0.4075   -0.0132    0.0000   -0.0458
        8 O1     *px        0.0000    0.0000   -0.0490   -0.0116   -0.0166   -0.0000   -0.0626
        9 O1     *px       -0.0000   -0.0000    0.0966    0.6472    0.0498    0.0000    0.1738
       10 O1     *px       -0.0000   -0.0000    3.2422    1.9347    1.0531   -0.0000    3.8479
       11 O1     *px        0.0000   -0.0000    2.1345    1.8053    0.6123   -0.0000    2.4360
       12 O1     2py        0.0203   -0.1152   -0.0000   -0.0000    0.0000    0.0000   -0.0000
       13 O1     *py       -0.0061    0.0325    0.0000   -0.0000   -0.0000   -0.0000   -0.0000
       14 O1     *py        0.0443   -0.2345   -0.0000   -0.0000   -0.0000   -0.0000    0.0000
       15 O1     *py        0.4211   -2.2567   -0.0000   -0.0000   -0.0000   -0.0000    0.0000
       16 O1     *py        0.3400   -1.7451   -0.0000   -0.0000    0.0000   -0.0000    0.0000
       17 O1     2pz       -0.1059   -0.0220   -0.0000    0.0000    0.0000   -0.0000    0.0000
       18 O1     *pz        0.0318    0.0062    0.0000    0.0000   -0.0000   -0.0000   -0.0000
       19 O1     *pz       -0.2315   -0.0449   -0.0000   -0.0000    0.0000    0.0000    0.0000
       20 O1     *pz       -2.2007   -0.4318   -0.0000   -0.0000    0.0000    0.0000    0.0000
       21 O1     *pz       -1.7769   -0.3340   -0.0000   -0.0000    0.0000    0.0000    0.0000
       22 O1     *d2-      -0.0000    0.0001    0.0000   -0.0000   -0.0000   -0.0000   -0.0000
       23 O1     *d2-      -0.0020    0.0102    0.0000    0.0000    0.0000    0.0000    0.0000
       24 O1     *d2-       0.0696   -0.3764   -0.0000   -0.0000   -0.0000   -0.0000    0.0000
       25 O1     *d2-       0.1887   -1.0065   -0.0000   -0.0000    0.0000   -0.0000    0.0000
       26 O1     *d1-       0.0000   -0.0000    0.0002   -0.0001   -0.0022   -0.0056    0.0006
       27 O1     *d1-       0.0000    0.0000    0.0002   -0.0006    0.0224    0.0580   -0.0052
       28 O1     *d1-       0.0000   -0.0000    0.0008   -0.0012   -0.0407   -0.1069    0.0124
       29 O1     *d1-       0.0000    0.0000   -0.0107   -0.0021    0.4107    1.0636   -0.0991
       30 O1     *d0       -0.0000    0.0000   -0.0013    0.0026    0.0041   -0.0019   -0.0035
       31 O1     *d0        0.0000   -0.0000    0.0132   -0.0156   -0.0498    0.0200    0.0056
       32 O1     *d0        0.0000    0.0000   -0.2016   -0.0605    0.0372   -0.0368   -0.1876
       33 O1     *d0       -0.0000    0.0000   -0.6316    0.1500   -1.1937    0.3659   -0.9289
       34 O1     *d1+       0.0002    0.0000   -0.0000    0.0000    0.0000    0.0000    0.0000
       35 O1     *d1+       0.0104    0.0020    0.0000   -0.0000    0.0000    0.0000    0.0000
       36 O1     *d1+      -0.3636   -0.0720   -0.0000   -0.0000    0.0000    0.0000    0.0000
       37 O1     *d1+      -0.9863   -0.1926   -0.0000    0.0000    0.0000    0.0000    0.0000
       38 O1     *d2+       0.0000   -0.0000    0.0016   -0.0038    0.0037   -0.0011    0.0028
       39 O1     *d2+      -0.0000    0.0000   -0.0239    0.0302   -0.0264    0.0115    0.0166
       40 O1     *d2+      -0.0000   -0.0000    0.3453    0.1107    0.1405   -0.0212    0.2627
       41 O1     *d2+       0.0000   -0.0000    1.1479   -0.2490   -0.0001    0.2113    2.1077
       42 O1     *f3-      -0.0005    0.0029    0.0000    0.0000    0.0000    0.0000   -0.0000
       43 O1     *f3-       0.0093   -0.0507   -0.0000   -0.0000   -0.0000   -0.0000    0.0000
       44 O1     *f3-       0.0398   -0.2146   -0.0000   -0.0000    0.0000   -0.0000    0.0000
       45 O1     *f2-       0.0000    0.0000   -0.0001   -0.0003    0.0001    0.0001    0.0001
       46 O1     *f2-       0.0000    0.0000   -0.0000   -0.0007    0.0006    0.0014   -0.0001
       47 O1     *f2-       0.0000    0.0000   -0.0013   -0.0008    0.0350    0.0900   -0.0072
       48 O1     *f1-       0.0003   -0.0010   -0.0000   -0.0000    0.0000   -0.0000   -0.0000
       49 O1     *f1-      -0.0021    0.0125    0.0000    0.0000    0.0000    0.0000   -0.0000
       50 O1     *f1-      -0.0103    0.0553    0.0000    0.0000    0.0000   -0.0000   -0.0000
       51 O1     *f0       -0.0020   -0.0005   -0.0000   -0.0000    0.0000    0.0000    0.0000
       52 O1     *f0        0.0303    0.0058    0.0000   -0.0000   -0.0000   -0.0000   -0.0000
       53 O1     *f0        0.1316    0.0259    0.0000    0.0000   -0.0000   -0.0000   -0.0000
       54 O1     *f1+       0.0000   -0.0000    0.0017   -0.0004   -0.0001    0.0000   -0.0003
       55 O1     *f1+       0.0000    0.0000   -0.0247   -0.0055   -0.0050    0.0004   -0.0092
       56 O1     *f1+      -0.0000    0.0000   -0.1384    0.0700   -0.1179    0.0283   -0.1551
       57 O1     *f2+       0.0023    0.0004    0.0000    0.0000    0.0000    0.0000   -0.0000
       58 O1     *f2+      -0.0398   -0.0081   -0.0000    0.0000    0.0000    0.0000    0.0000
       59 O1     *f2+      -0.1699   -0.0336   -0.0000   -0.0000    0.0000    0.0000    0.0000
       60 O1     *f3+       0.0000    0.0000   -0.0018    0.0019   -0.0001    0.0000   -0.0000
       61 O1     *f3+      -0.0000   -0.0000    0.0320    0.0099    0.0041    0.0003    0.0121
       62 O1     *f3+       0.0000   -0.0000    0.1841   -0.0871    0.0082    0.0219    0.2300
       63 O1     *g4-       0.0001   -0.0003    0.0000   -0.0000   -0.0000    0.0000   -0.0000
       64 O1     *g4-       0.0076   -0.0410   -0.0000   -0.0000   -0.0000   -0.0000    0.0000
       65 O1     *g3-      -0.0000   -0.0000    0.0000    0.0000   -0.0014   -0.0036    0.0003
       66 O1     *g3-       0.0000   -0.0000   -0.0001    0.0000    0.0075    0.0186   -0.0024
       67 O1     *g2-      -0.0000    0.0001   -0.0000    0.0000    0.0000   -0.0000   -0.0000
       68 O1     *g2-      -0.0030    0.0157    0.0000    0.0000   -0.0000    0.0000   -0.0000
       69 O1     *g1-      -0.0000    0.0000   -0.0000   -0.0000    0.0004    0.0012   -0.0001
       70 O1     *g1-       0.0000    0.0000   -0.0000   -0.0000   -0.0005   -0.0045    0.0004
       71 O1     *g0        0.0000   -0.0000    0.0008    0.0017   -0.0020    0.0007   -0.0001
       72 O1     *g0       -0.0000   -0.0000    0.0130   -0.0097    0.0119   -0.0026    0.0089
       73 O1     *g1+       0.0003    0.0000    0.0000    0.0000    0.0000    0.0000    0.0000
       74 O1     *g1+       0.0320    0.0064    0.0000   -0.0000   -0.0000   -0.0000   -0.0000
       75 O1     *g2+       0.0000    0.0000   -0.0012   -0.0026    0.0021   -0.0009    0.0003
       76 O1     *g2+      -0.0000    0.0000   -0.0194    0.0144   -0.0157    0.0053   -0.0143
       77 O1     *g3+      -0.0002   -0.0000   -0.0000   -0.0000   -0.0000   -0.0000   -0.0000
       78 O1     *g3+      -0.0279   -0.0055   -0.0000    0.0000    0.0000    0.0000    0.0000
[...]
       71 O1     *g0       -0.0000    0.6540   -0.0128    0.0000    0.0000   -0.0000   -0.0000   -0.0000    0.0220   -0.0000
       72 O1     *g0       -0.0000   -0.2876    0.0797    0.0000   -0.0000    0.0000   -0.0000   -0.0000   -0.2514    0.0000
       73 O1     *g1+       0.0023    0.0000   -0.0000   -0.5022   -0.1587    0.1394    0.2917   -0.0247    0.0000    0.6938
       74 O1     *g1+       0.1919   -0.0000    0.0000   -0.1610    0.3313   -0.7441   -0.1304    0.1226   -0.0000   -0.3212
       75 O1     *g2+       0.0000    0.5556    0.0063   -0.0000   -0.0000    0.0000    0.0000    0.0000   -0.0243    0.0000
       76 O1     *g2+       0.0000   -0.2408   -0.0720   -0.0000    0.0000   -0.0000    0.0000    0.0000    0.2283   -0.0000
       77 O1     *g3+      -0.0052    0.0000   -0.0000    0.4431    0.1416   -0.1090   -0.2544   -0.0281   -0.0000    0.7422
       78 O1     *g3+      -0.1681   -0.0000   -0.0000    0.1418   -0.2928    0.6493    0.1134    0.1423    0.0000   -0.3859
       79 O1     *g4+      -0.0000    0.0913    0.0112    0.0000   -0.0000   -0.0000   -0.0000   -0.0000   -0.0295   -0.0000
       80 O1     *g4+      -0.0000   -0.0381   -0.0948    0.0000    0.0000    0.0000   -0.0000    0.0000    0.3001    0.0000
       81 H2     1s        -0.0000    0.0180   -0.0000    0.0000   -0.0000   -0.0000   -0.0000   -0.0000    0.0000   -0.0000
       82 H2     *s         0.0000   -0.0032   -0.0000   -0.0000    0.0000    0.0000    0.0000    0.0000    0.0000    0.0000
       83 H2     *s        -0.0000   -0.0109    0.0000   -0.0000    0.0000   -0.0000   -0.0000   -0.0000   -0.0000   -0.0000
       84 H2     *s        -0.0000   -0.0041   -0.0000   -0.0000    0.0000   -0.0000   -0.0000   -0.0000    0.0000   -0.0000
       85 H2     *s        -0.0000    0.0005   -0.0000    0.0000   -0.0000   -0.0000   -0.0000   -0.0000    0.0000   -0.0000
       86 H2     *px       -0.0000   -0.0003    0.0000    0.0000    0.0000    0.0000   -0.0000   -0.0000   -0.0000    0.0000
       87 H2     *px        0.0000   -0.0024   -0.0000    0.0000    0.0000    0.0000    0.0000    0.0000    0.0000    0.0000
       88 H2     *px        0.0000   -0.0108   -0.0000   -0.0000    0.0000    0.0000    0.0000    0.0000    0.0000    0.0000
       89 H2     *px        0.0000   -0.0040    0.0000   -0.0000    0.0000    0.0000    0.0000    0.0000   -0.0000    0.0000
       90 H2     *py       -0.1977    0.0000    0.0000   -0.0752    0.0317   -0.2469    0.1816   -0.0007    0.0000    0.0029
       91 H2     *py        0.0211   -0.0000    0.0000    0.4194   -0.2215    0.7653   -0.3434    0.0007   -0.0000   -0.0177
       92 H2     *py       -0.6648   -0.0000   -0.0000    0.2390   -0.2501    0.2989   -0.4249   -0.0016   -0.0000   -0.0257
       93 H2     *py       -0.1346   -0.0000   -0.0000    0.0235   -0.0422    0.0141   -0.0442   -0.0004   -0.0000   -0.0048
       94 H2     *pz        1.0333   -0.0000   -0.0000    0.3932   -0.1659    1.2899   -0.9489    0.0035    0.0000   -0.0152
       95 H2     *pz       -0.1102    0.0000    0.0000   -2.1915    1.1574   -3.9993    1.7945   -0.0039   -0.0000    0.0926
       96 H2     *pz        3.4740    0.0000    0.0000   -1.2490    1.3072   -1.5619    2.2204    0.0084   -0.0000    0.1344
       97 H2     *pz        0.7035    0.0000    0.0000   -0.1229    0.2208   -0.0738    0.2312    0.0022   -0.0000    0.0253
       98 H2     *d2-      -0.0131   -0.0000   -0.0000   -0.1187   -0.0314   -0.1570   -0.1836    0.0000    0.0000    0.0043
       99 H2     *d2-       0.3417    0.0000    0.0000   -0.3528    0.2151   -0.3845    0.4935    0.0006    0.0000    0.0166
      100 H2     *d2-       0.1964    0.0000    0.0000   -0.0643    0.0952   -0.0204    0.0973    0.0007   -0.0000    0.0086
      101 H2     *d1-       0.0000   -0.0036   -0.0435   -0.0000   -0.0000   -0.0000   -0.0000    0.0000    0.0403   -0.0000
      102 H2     *d1-       0.0000    0.0055    0.4243    0.0000    0.0000    0.0000    0.0000    0.0000   -1.5471    0.0000
      103 H2     *d1-       0.0000    0.0035   -0.1632    0.0000    0.0000    0.0000    0.0000    0.0000   -0.7539    0.0000
      104 H2     *d0       -0.0000    0.0092   -0.0150    0.0000    0.0000   -0.0000   -0.0000   -0.0000    0.0139   -0.0000
      105 H2     *d0        0.0000   -0.0145    0.1460   -0.0000   -0.0000    0.0000    0.0000    0.0000   -0.5323    0.0000
      106 H2     *d0        0.0000   -0.0109   -0.0562   -0.0000    0.0000    0.0000    0.0000    0.0000   -0.2594    0.0000
      107 H2     *d1+       0.0682    0.0000    0.0000    0.6201    0.1643    0.8206    0.9596   -0.0000    0.0000   -0.0226
      108 H2     *d1+      -1.7858   -0.0000   -0.0000    1.8436   -1.1238    2.0095   -2.5790   -0.0030    0.0000   -0.0868
      109 H2     *d1+      -1.0263   -0.0000   -0.0000    0.3358   -0.4977    0.1064   -0.5084   -0.0036    0.0000   -0.0450
      110 H2     *d2+       0.0000    0.0025   -0.0086   -0.0000    0.0000    0.0000    0.0000    0.0000    0.0080    0.0000
      111 H2     *d2+      -0.0000   -0.0027    0.0843    0.0000   -0.0000   -0.0000   -0.0000   -0.0000   -0.3073   -0.0000
      112 H2     *d2+      -0.0000    0.0013   -0.0324    0.0000   -0.0000   -0.0000   -0.0000   -0.0000   -0.1498   -0.0000
      113 H2     *f3-      -0.1973   -0.0000   -0.0000    0.1766    0.0231    0.1917   -0.1731    0.1484   -0.0000   -0.0004
      114 H2     *f3-      -0.0493   -0.0000   -0.0000    0.0557   -0.0660   -0.0193   -0.0775   -0.0430    0.0000   -0.0272
      115 H2     *f2-       0.0000    0.0021    0.0549    0.0000    0.0000    0.0000    0.0000   -0.0000    0.0812    0.0000
      116 H2     *f2-      -0.0000   -0.0036   -0.1019   -0.0000   -0.0000   -0.0000   -0.0000   -0.0000    1.0272   -0.0000
      117 H2     *f1-       0.0494   -0.0000    0.0000   -0.0456   -0.0063   -0.0495    0.0452    0.5759    0.0000    0.0206
      118 H2     *f1-       0.0134   -0.0000    0.0000   -0.0144    0.0173    0.0041    0.0196   -0.1654   -0.0000   -0.0932
      119 H2     *f0       -0.6489    0.0000   -0.0000    0.5837    0.0772    0.6335   -0.5730   -0.7388    0.0000   -0.0424
      120 H2     *f0       -0.1642    0.0000   -0.0000    0.1841   -0.2185   -0.0621   -0.2553    0.2110   -0.0000    0.1106
      121 H2     *f1+      -0.0000   -0.0051    0.0172    0.0000   -0.0000    0.0000   -0.0000   -0.0000    0.0255    0.0000
      122 H2     *f1+       0.0000    0.0087   -0.0320    0.0000    0.0000    0.0000   -0.0000    0.0000    0.3226    0.0000
      123 H2     *f2+       0.8415    0.0000   -0.0000   -0.7535   -0.0988   -0.8179    0.7385   -0.5706   -0.0000    0.0040
      124 H2     *f2+       0.2103    0.0000    0.0000   -0.2376    0.2816    0.0823    0.3306    0.1656    0.0000    0.1059
      125 H2     *f3+       0.0000   -0.0022    0.0134   -0.0000   -0.0000   -0.0000   -0.0000    0.0000    0.0198   -0.0000
      126 H2     *f3+       0.0000    0.0034   -0.0248   -0.0000    0.0000    0.0000    0.0000    0.0000    0.2499    0.0000

          Orbital          101       102       103       104       105       106    
          Energy            8.5305   11.5105    7.6420    3.6569   11.1231   10.6127
          Occ. No.          0.0000    0.0000    0.0000    0.0000    0.0000    0.0000

        1 O1     1s        -0.0000    0.0000   -0.0000   -0.0000   -0.0000    0.0000
        2 O1     2s        -0.0000    0.0000   -0.0000    0.0000   -0.0000    0.0000
        3 O1     *s        -0.0000    0.0000   -0.0000    0.0000   -0.0000    0.0000
        4 O1     *s         0.0000   -0.0000    0.0000   -0.0000    0.0000   -0.0000
        5 O1     *s        -0.0000    0.0000   -0.0000   -0.0000   -0.0000   -0.0000
        6 O1     *s        -0.0000    0.0000   -0.0000    0.0000   -0.0000   -0.0000
        7 O1     2px       -0.0000   -0.0000   -0.0000    0.0000   -0.0000    0.0000
        8 O1     *px       -0.0000   -0.0000   -0.0000    0.0000    0.0000   -0.0000
        9 O1     *px       -0.0000    0.0000   -0.0000   -0.0000   -0.0000   -0.0000
       10 O1     *px       -0.0000    0.0000   -0.0000   -0.0000   -0.0000   -0.0000
       11 O1     *px       -0.0000   -0.0000   -0.0000    0.0000   -0.0000   -0.0000
       12 O1     2py       -0.0000    0.1791    0.0000   -0.0000   -0.0000   -0.0000
       13 O1     *py        0.0000   -0.0992   -0.0000   -0.0000    0.0000    0.0000
       14 O1     *py       -0.0000   -0.1192    0.0000    0.0000   -0.0000   -0.0000
       15 O1     *py       -0.0000   -0.0341    0.0000    0.0000    0.0000   -0.0000
       16 O1     *py       -0.0000    0.0128    0.0000    0.0000   -0.0000   -0.0000
       17 O1     2pz        0.0000   -0.9357    0.0000   -0.0000    0.0000   -0.0000
       18 O1     *pz       -0.0000    0.5183   -0.0000   -0.0000   -0.0000    0.0000
       19 O1     *pz       -0.0000    0.6229    0.0000    0.0000    0.0000    0.0000
       20 O1     *pz       -0.0000    0.1782    0.0000   -0.0000    0.0000    0.0000
       21 O1     *pz        0.0000   -0.0667    0.0000    0.0000    0.0000   -0.0000
       22 O1     *d2-       0.0000   -0.0902   -0.0000   -0.0000   -0.0000   -0.0000
       23 O1     *d2-      -0.0000    0.0283    0.0000   -0.0000   -0.0000   -0.0000
       24 O1     *d2-      -0.0000   -0.0686    0.0000    0.0000   -0.0000   -0.0000
       25 O1     *d2-      -0.0000    0.0470    0.0000    0.0000   -0.0000   -0.0000
       26 O1     *d1-       0.0311    0.0000   -0.0268    0.0012    0.1513    0.0057
       27 O1     *d1-       0.0605    0.0000   -0.1174    0.0031   -0.0230    0.0068
       28 O1     *d1-      -0.5563   -0.0000   -0.4614    0.0287   -0.3320   -0.0133
       29 O1     *d1-      -0.1038   -0.0000    0.0650    0.0074   -0.2642   -0.0066
       30 O1     *d0        0.0107   -0.0000   -0.0092    0.0004    0.0520    0.0019
       31 O1     *d0        0.0208   -0.0000   -0.0404    0.0011   -0.0079    0.0023
       32 O1     *d0       -0.1914    0.0000   -0.1588    0.0099   -0.1142   -0.0046
       33 O1     *d0       -0.0357   -0.0000    0.0224    0.0025   -0.0909   -0.0023
       34 O1     *d1+       0.0000    0.4715    0.0000    0.0000    0.0000   -0.0000
       35 O1     *d1+      -0.0000   -0.1479    0.0000   -0.0000    0.0000    0.0000
       36 O1     *d1+      -0.0000    0.3582    0.0000    0.0000    0.0000   -0.0000
       37 O1     *d1+      -0.0000   -0.2454    0.0000   -0.0000    0.0000   -0.0000
       38 O1     *d2+       0.0062    0.0000   -0.0053    0.0002    0.0301    0.0011
       39 O1     *d2+       0.0120    0.0000   -0.0233    0.0006   -0.0046    0.0013
       40 O1     *d2+      -0.1105    0.0000   -0.0917    0.0057   -0.0659   -0.0026
       41 O1     *d2+      -0.0206    0.0000    0.0129    0.0015   -0.0525   -0.0013
       42 O1     *f3-      -0.0000    0.0598   -0.0000    0.0000    0.0000    0.0000
       43 O1     *f3-      -0.0000   -0.1160    0.0000    0.0000   -0.0000   -0.0000
       44 O1     *f3-       0.0000    0.0529    0.0000    0.0000   -0.0000   -0.0000
       45 O1     *f2-      -0.0108    0.0000    0.0331    0.0003    0.0420    0.0004
       46 O1     *f2-      -0.1035    0.0000   -0.7709   -0.0042    0.0396    0.0019
       47 O1     *f2-      -0.4300   -0.0000   -0.1210    0.0219   -0.4195   -0.0122
       48 O1     *f1-       0.0000   -0.0331    0.0000    0.0000    0.0000    0.0000
       49 O1     *f1-       0.0000    0.0404   -0.0000   -0.0000   -0.0000    0.0000
       50 O1     *f1-      -0.0000   -0.0169   -0.0000   -0.0000   -0.0000   -0.0000
       51 O1     *f0        0.0000    0.2332    0.0000   -0.0000   -0.0000    0.0000
       52 O1     *f0        0.0000   -0.4044   -0.0000   -0.0000   -0.0000   -0.0000
       53 O1     *f0        0.0000    0.1812   -0.0000    0.0000   -0.0000    0.0000
       54 O1     *f1+      -0.0034    0.0000    0.0104    0.0001    0.0132    0.0001
       55 O1     *f1+      -0.0325   -0.0000   -0.2421   -0.0013    0.0124    0.0006
       56 O1     *f1+      -0.1351    0.0000   -0.0380    0.0069   -0.1318   -0.0038
       57 O1     *f2+       0.0000   -0.2572   -0.0000    0.0000    0.0000    0.0000
       58 O1     *f2+      -0.0000    0.4962    0.0000   -0.0000    0.0000   -0.0000
       59 O1     *f2+      -0.0000   -0.2259    0.0000    0.0000    0.0000   -0.0000
       60 O1     *f3+      -0.0026   -0.0000    0.0080    0.0001    0.0102    0.0001
       61 O1     *f3+      -0.0252    0.0000   -0.1875   -0.0010    0.0096    0.0005
       62 O1     *f3+      -0.1046    0.0000   -0.0294    0.0053   -0.1021   -0.0030
       63 O1     *g4-      -0.0000   -0.1964   -0.0000   -0.0000    0.0000    0.0000
       64 O1     *g4-       0.0000    0.0644    0.0000    0.0000   -0.0000   -0.0000
       65 O1     *g3-      -0.1751    0.0000    0.0881    0.0405    1.0628   -0.2797
       66 O1     *g3-      -0.1066   -0.0000   -0.6722   -0.2678   -0.5782    0.1189
       67 O1     *g2-       0.0000    0.0609   -0.0000   -0.0000    0.0000    0.0000
       68 O1     *g2-      -0.0000   -0.0181   -0.0000   -0.0000   -0.0000   -0.0000
       69 O1     *g1-       0.0680   -0.0000   -0.0348    0.1096   -0.3790   -0.8164
       70 O1     *g1-       0.0395    0.0000    0.2547   -0.7379    0.2089    0.3577
       71 O1     *g0        0.0429    0.0000   -0.0221    0.0817   -0.2358   -0.6078
       72 O1     *g0        0.0247   -0.0000    0.1601   -0.5499    0.1302    0.2662
       73 O1     *g1+       0.0000   -0.7916    0.0000   -0.0000   -0.0000    0.0000
       74 O1     *g1+      -0.0000    0.2553   -0.0000    0.0000   -0.0000   -0.0000
       75 O1     *g2+      -0.0362   -0.0000    0.0179    0.0727    0.2373   -0.5329
       76 O1     *g2+      -0.0230   -0.0000   -0.1424   -0.4878   -0.1277    0.2320
       77 O1     *g3+      -0.0000    0.7243   -0.0000    0.0000   -0.0000    0.0000
       78 O1     *g3+       0.0000   -0.2373    0.0000   -0.0000    0.0000   -0.0000
       79 O1     *g4+      -0.0491   -0.0000    0.0247    0.0136    0.2989   -0.0946
       80 O1     *g4+      -0.0299    0.0000   -0.1888   -0.0898   -0.1626    0.0404
       81 H2     1s         0.0000   -0.0000    0.0000   -0.0000    0.0000    0.0000
       82 H2     *s        -0.0000   -0.0000   -0.0000    0.0000    0.0000   -0.0000
       83 H2     *s         0.0000   -0.0000    0.0000    0.0000    0.0000    0.0000
       84 H2     *s         0.0000   -0.0000    0.0000   -0.0000    0.0000    0.0000
       85 H2     *s         0.0000   -0.0000    0.0000   -0.0000    0.0000    0.0000
       86 H2     *px        0.0000    0.0000    0.0000    0.0000   -0.0000   -0.0000
       87 H2     *px       -0.0000    0.0000   -0.0000   -0.0000   -0.0000   -0.0000
       88 H2     *px       -0.0000    0.0000   -0.0000   -0.0000   -0.0000   -0.0000
       89 H2     *px       -0.0000    0.0000   -0.0000    0.0000   -0.0000   -0.0000
       90 H2     *py       -0.0000    0.0291   -0.0000    0.0000   -0.0000    0.0000
       91 H2     *py        0.0000    0.0399    0.0000   -0.0000    0.0000    0.0000
       92 H2     *py        0.0000   -0.0166   -0.0000   -0.0000    0.0000    0.0000
       93 H2     *py        0.0000   -0.0157   -0.0000   -0.0000    0.0000    0.0000
       94 H2     *pz       -0.0000   -0.1520   -0.0000    0.0000    0.0000    0.0000
       95 H2     *pz        0.0000   -0.2087   -0.0000    0.0000   -0.0000   -0.0000
       96 H2     *pz        0.0000    0.0867   -0.0000    0.0000   -0.0000    0.0000
       97 H2     *pz        0.0000    0.0818   -0.0000   -0.0000   -0.0000    0.0000
       98 H2     *d2-       0.0000   -0.1094   -0.0000   -0.0000   -0.0000   -0.0000
       99 H2     *d2-      -0.0000   -0.0101    0.0000    0.0000   -0.0000   -0.0000
      100 H2     *d2-      -0.0000   -0.0233    0.0000    0.0000   -0.0000   -0.0000
      101 H2     *d1-      -1.1888   -0.0000    0.0820    0.0014   -0.3142   -0.0098
      102 H2     *d1-       1.1337    0.0000    0.8286   -0.0223    0.5241    0.0150
      103 H2     *d1-       0.1062    0.0000   -0.0391   -0.0150    0.3298    0.0095
      104 H2     *d0       -0.4090    0.0000    0.0282    0.0005   -0.1081   -0.0034
      105 H2     *d0        0.3901   -0.0000    0.2851   -0.0077    0.1803    0.0052
      106 H2     *d0        0.0365   -0.0000   -0.0135   -0.0052    0.1135    0.0033
      107 H2     *d1+       0.0000    0.5718   -0.0000   -0.0000    0.0000   -0.0000
      108 H2     *d1+      -0.0000    0.0526    0.0000   -0.0000    0.0000   -0.0000
      109 H2     *d1+      -0.0000    0.1217    0.0000    0.0000    0.0000   -0.0000
      110 H2     *d2+      -0.2361    0.0000    0.0163    0.0003   -0.0624   -0.0020
      111 H2     *d2+       0.2252   -0.0000    0.1646   -0.0044    0.1041    0.0030
      112 H2     *d2+       0.0211   -0.0000   -0.0078   -0.0030    0.0655    0.0019
      113 H2     *f3-       0.0000    0.0433   -0.0000   -0.0000    0.0000    0.0000
      114 H2     *f3-       0.0000   -0.0005   -0.0000   -0.0000    0.0000    0.0000
      115 H2     *f2-      -0.2148    0.0000   -1.2617    0.0007    0.2028    0.0061
      116 H2     *f2-      -0.3336   -0.0000    0.0345    0.0156   -0.3437   -0.0102
      117 H2     *f1-      -0.0000   -0.0114    0.0000    0.0000   -0.0000   -0.0000
      118 H2     *f1-      -0.0000   -0.0010    0.0000    0.0000    0.0000    0.0000
      119 H2     *f0       -0.0000    0.1435    0.0000   -0.0000    0.0000    0.0000
      120 H2     *f0       -0.0000    0.0007    0.0000   -0.0000    0.0000    0.0000
      121 H2     *f1+      -0.0675    0.0000   -0.3963    0.0002    0.0637    0.0019
      122 H2     *f1+      -0.1048    0.0000    0.0108    0.0049   -0.1079   -0.0032
      123 H2     *f2+       0.0000   -0.1847   -0.0000   -0.0000   -0.0000   -0.0000
      124 H2     *f2+       0.0000    0.0020   -0.0000   -0.0000   -0.0000    0.0000
      125 H2     *f3+      -0.0523   -0.0000   -0.3070    0.0002    0.0493    0.0015
      126 H2     *f3+      -0.0812    0.0000    0.0084    0.0038   -0.0836   -0.0025
--


++    Molecular properties:
      ---------------------

      Charge (e):
                      =   -0.0000
      Dipole Moment (Debye):
      Origin of the operator (Ang)=    0.0000    0.0000    0.0000
                   X=  1.7812E+00               Y= -5.1518E-14               Z= -5.1676E-14           Total=  1.7812E+00
      Quadrupole Moment (Debye*Ang):
      Origin of the operator (Ang)=    0.0593    0.0000    0.0000
                  XX= -4.2840E+00              XY=  2.2874E-14              XZ=  2.7299E-14              YY= -6.7031E+00
                  YZ= -2.4109E-01              ZZ= -5.4894E+00
      In traceless form (Debye*Ang)
                  XX=  1.8123E+00              XY=  3.4311E-14              XZ=  4.0949E-14              YY= -1.8164E+00
                  YZ= -3.6164E-01              ZZ=  4.1353E-03
--


      Input file to MOLDEN was generated!

 ###############################################################################
 ###############################################################################
 ###                                                                         ###
 ###                                                                         ###
 ###    WARNING: RunFile label nBas                                          ###
 ###    was used       61 times                                              ###
 ###                                                                         ###
 ###                                                                         ###
 ###############################################################################
 ###############################################################################
--- Stop Module: scf at Tue May  7 13:32:47 2024 /rc=_RC_ALL_IS_WELL_ ---
*** files: 0507.scf.molden 0507.UhfOrb 0507.UnaOrb xmldump
    saved to directory /home/kenya/molcas_test/0507
--- Module scf spent 23 seconds ---

.##################.
.# Happy landing! #.
.##################.

    Timing: Wall=44.92 User=39.13 System=5.71
