   This run of MOLCAS is using the pymolcas driver

                             OPE
                             OPE          NMOL  CASOP  ENMOLC A   SO
                 OPE        NMOLC        AS  OP EN  MO LC     AS  OP
                OPENM       OL CA        SO  PE NM  OL CA     SOP EN
                OP EN      MO   LC       AS  OP ENMOL  CASO   PENMOL
                OP  EN     MO   LC       AS  OP EN     MO     LC ASO
               OP   E  NMOL  C  AS       OP  EN MO     LC     AS  OP
               OP  E   NMO   LC AS        OPEN  MO     LCASOP EN   M
               O  PEN   MO  LCA  SO
            OPE   NMO   L   CAS    OP
        OPENMOL  CASOP     ENMOL   CASOPE
     OPENMOLCA   SOPENMOLCASOPEN   MOLCASOPE
    OPENMOLCAS   OP           EN   MOL    CAS
    OPENMOLCAS       OP  ENM        O     LCA
    OPENMOLCAS    OPEN  MOLCASO     P  E  NMO
    OPENMOLCAS     OP               E  N  MOL
    OPENMOLCA   SO           PENM   O  L  CAS    OPEN    MO    LCAS
    OPENMOLCA   SOP           ENM   O  L  CAS   OP  EN  MOLC  AS   O
    OPENMOLCA   SOPE           NM      O  LCA   S      OP  EN MO
    OPENMOLC                AS         O  PEN   M      OL  CA  SOPE
    OPENMO        LCASOPE  NMOL        C  ASO   P      ENMOLC     AS
    OPE     NMO      LCA  SO     P     E   NM   OL  CA SO  PE N   MO
          OPENMOLCA            SOPE   NMO        LCAS  O    P  ENMO
     OPENMOLCASOPENMOLCASOPENMOLCASOPENMOLCA
        OPENMOLCASOPENMOLCASOPENMOLCASOPE
            OPENMOLCASOPENMOLCASOPENM
               OPENMOLCASOPENMOLCA        version: 24.02
                   OPENMOLCASO
                       OPE                tag: 428-g03afa2e9a

 OpenMolcas is free software; you can redistribute it and/or modify it
 under the terms of the GNU Lesser General Public License version 2.1.
 OpenMolcas is distributed in the hope that it will be useful, but it
 is provided "as is" and without any express or implied warranties.
 For more details see the full text of the license in the file
 LICENSE or in <http://www.gnu.org/licenses/>.

                 Copyright (C) The OpenMolcas Authors
           For the author list and the recommended citation,
                   consult the file CONTRIBUTORS.md

           *************************************************
           * pymolcas version py2.28                       *
           *   build c4a6d18ded8cb6cad61d2372a9abd97c      *
           *   (after the EMIL interpreter by V. Veryazov) *
           *************************************************

configuration info
------------------
Host name: DESKTOP-ET1S6F4 (Linux)
C Compiler ID: GNU
C flags: -std=gnu99 -fopenmp
Fortran Compiler ID: GNU
Fortran flags: -fno-aggressive-loop-optimizations -cpp -fdefault-integer-8 -fopenmp
Definitions: _WARNING_WORKAROUND_;_MOLCAS_;_I8_;_LINUX_
Parallel: OFF (GA=OFF)


   ----------------------------------------------------------------------
  |
  |           Project: 0507
  |    Submitted from: /home/kenya/molcas_test/0507
  |      Scratch area: /tmp/0507
  |   Save outputs to: /home/kenya/molcas_test/0507
  |            Molcas: /home/kenya/OpenMolcas/builds/gnu_dev_omp
  |
  | Scratch area is NOT empty
  |
  |    MOLCAS_DRIVER = /home/kenya/OpenMolcas/builds/gnu_dev_omp/pymolcas
  |    MOLCAS_NPROCS = 1
  |    MOLCAS_SOURCE = /home/kenya/OpenMolcas
  | MOLCAS_STRUCTURE = 0
  |
   ----------------------------------------------------------------------

++ ---------   Input file   ---------

&GATEWAY
 Coord = 2
 Angstrom
 O 0.0 0.0 0.0
 H 1.0 0.0 0.0
 Basis = cc-pVQZ
 Group = C1
 NoCD

&SEWARD

&SCF
 Charge = -1

&GATEWAY
 Coord = 2
 Angstrom
 O 0.0 0.0 0.0
 H 1.0 0.0 0.0
 Basis = cc-pVQZ
 Group = C1
 NoCD

&SEWARD

&SCF
 Spin = 2

-- ----------------------------------

*** symbolic link created: INPORB -> 0507.ScfOrb
--- Start Module: gateway at Tue May  7 13:11:54 2024 ---

()()()()()()()()()()()()()()()()()()()()()()()()()()()()()()()()()()()()()()()()()()()()()()()()()()

                                              &GATEWAY

                                   only a single process is used
                       available to each process: 2.0 GB of memory, 1 thread
                                             pid: 14913
()()()()()()()()()()()()()()()()()()()()()()()()()()()()()()()()()()()()()()()()()()()()()()()()()()


++    Symmetry information:
      ---------------------

                    Character Table for C1 

                             E  
                    a        1  x, y, xy, Rz, z, xz, Ry, yz, Rx, I
--


++    Basis set information:
      ----------------------


      Basis set label: O.CC-PVQZ.........

      Electronic valence basis set:
      ------------------
      Associated Effective Charge   8.000000 au
      Associated Actual Charge      8.000000 au
      Nuclear Model: Point charge

      Shell  nPrim  nBasis  Cartesian Spherical Contaminant
         s      12       5        X                  
         p       6       4        X                  
         d       3       3                 X         
         f       2       2                 X         
         g       1       1                 X         


      Basis set label: H.CC-PVQZ.........

      Electronic valence basis set:
      ------------------
      Associated Effective Charge   1.000000 au
      Associated Actual Charge      1.000000 au
      Nuclear Model: Point charge

      Shell  nPrim  nBasis  Cartesian Spherical Contaminant
         s       6       4        X                  
         p       3       3        X                  
         d       2       2                 X         
         f       1       1                 X         
--


++    Molecular structure info:
      -------------------------

                    ************************************************ 
                    **** Cartesian Coordinates / Bohr, Angstrom **** 
                    ************************************************ 

     Center  Label                x              y              z                     x              y              z
        1      O1               0.000000       0.000000       0.000000              0.000000       0.000000       0.000000
        2      H2               1.889726       0.000000       0.000000              1.000000       0.000000       0.000000
--


            Nuclear Potential Energy              4.23341769 au

--- Stop Module: gateway at Tue May  7 13:11:54 2024 /rc=_RC_ALL_IS_WELL_ ---
*** files: xmldump
    saved to directory /home/kenya/molcas_test/0507

*** symbolic link created: INPORB -> 0507.ScfOrb
--- Start Module: seward at Tue May  7 13:11:54 2024 ---

()()()()()()()()()()()()()()()()()()()()()()()()()()()()()()()()()()()()()()()()()()()()()()()()()()

                                              &SEWARD

                                   only a single process is used
                       available to each process: 2.0 GB of memory, 1 thread
                                             pid: 14917
()()()()()()()()()()()()()()()()()()()()()()()()()()()()()()()()()()()()()()()()()()()()()()()()()()

               SEWARD will generate:
                  Multipole Moment integrals up to order  2
                  Kinetic Energy integrals
                  Nuclear Attraction integrals (point charge)
                  One-Electron Hamiltonian integrals
                  Velocity integrals
                  Orbital angular momentum around ( 0.1120  0.0000  0.0000 )
                  Velocity quadrupole around ( 0.1120  0.0000  0.0000 )
                  Two-Electron Repulsion integrals

                   Integrals are discarded if absolute value <: 1.00E-14
                   Integral cutoff threshold is set to       <: 1.00E-16

            Nuclear Potential Energy              4.23341769 au


      Basis set specifications :
      Symmetry species         a  
      Basis functions           85


      Input file to MOLDEN was generated!

--- Stop Module: seward at Tue May  7 13:11:55 2024 /rc=_RC_ALL_IS_WELL_ ---
*** files: 0507.GssOrb 0507.guessorb.molden xmldump
    saved to directory /home/kenya/molcas_test/0507
--- Module seward spent 1 second ---

*** symbolic link created: INPORB -> 0507.ScfOrb
--- Start Module: scf at Tue May  7 13:11:55 2024 ---

()()()()()()()()()()()()()()()()()()()()()()()()()()()()()()()()()()()()()()()()()()()()()()()()()()

                                                &SCF

                                   only a single process is used
                       available to each process: 2.0 GB of memory, 1 thread
                                             pid: 14937
()()()()()()()()()()()()()()()()()()()()()()()()()()()()()()()()()()()()()()()()()()()()()()()()()()

++    Input section:
      --------------

      Header of the integral files:
      
       Integrals generated by Gateway/Seward, Tue May  7 13:11:54 2024


      Cartesian coordinates in Angstrom:
      -----------------------------------------------------
      No.  Label        X            Y            Z        
      -----------------------------------------------------
       1   O1         0.00000000   0.00000000   0.00000000
       2   H2         1.00000000   0.00000000   0.00000000
      -----------------------------------------------------
      Nuclear repulsion energy =    4.23341769
--

++    Orbital specifications:
      -----------------------

      Symmetry species               1
                                     a
      Frozen orbitals                0
      Aufbau                         5
      Start temperature = 0.500
      End temperature   = 0.010
      Temperature Factor= 0.460
      Deleted orbitals               0
      Total number of orbitals      85
      Number of basis functions     85
--

      Molecular charge                          -1.000

++    Optimization specifications:
      ----------------------------

      SCF Algorithm: Conventional
      Minimized density differences are used
      Number of density matrices in core                 5
      Maximum number of NDDO SCF iterations            400
      Maximum number of HF SCF iterations              400
      Threshold for SCF energy change             1.00E-09
      Threshold for density matrix                1.00E-04
      Threshold for Fock matrix                   1.50E-04
      Threshold for linear dependence             1.00E-09
      Threshold at which DIIS is turned on        1.50E-01
      Maximum depth in the DIIS procedure                5
      Maximum depth in the BFGS Hessian update          30
      Threshold at which QNR/C2DIIS is turned on  7.50E-02
      Threshold for Norm(delta) (QNR/C2DIIS)      1.00E-03
      All orbitals punched on: SCFORB
--

      Detected guessorb starting orbitals                                             


++ Convergence information
                                   SCF        iterations: Energy and convergence statistics

Iter     Tot. SCF        One-elec.       Two-elec.     Energy      Max Dij or  Max Fij      DNorm      TNorm      AccCon     Time
         Energy          Energy          Energy        Change      Delta Norm                                                in Sec.
   1   -74.165142459  -116.943974634    38.545414488   0.00E+00    1.83E-01*   3.68E+00*    6.74E+00   7.52E+01   None         0.
   2   -73.988828490  -110.527077927    32.304831750   1.76E-01*   1.37E-01*   2.51E-02*    3.43E+01   6.88E+01   EDIIS        0.
   3   -75.083203165  -114.668377735    35.351756883  -1.09E+00*   7.81E-02*   6.88E-02*    4.73E+00   7.20E+01   EDIIS        0.
   4   -75.348574947  -117.887588354    38.305595719  -2.65E-01*   1.53E-01*   1.10E-01*    2.83E+00   7.49E+01   EDIIS        0.
   5   -75.378070206  -115.418418918    35.806931025  -2.95E-02*   6.81E-02*   1.08E-01*    8.41E-01   7.29E+01   EDIIS        0.
   6   -75.394179110  -117.034631302    37.407034504  -1.61E-02*   4.27E-02*   5.17E-02*    1.52E-01   7.42E+01   EDIIS        0.
   7   -75.397494565  -116.209993494    36.579081242  -3.32E-03*   1.65E-02*   2.80E-02*    3.50E-02   7.36E+01   EDIIS        0.

       Fermi aufbau procedure completed!
      nOcc=    5

   8   -75.398828792  -116.631313556    36.999067077  -1.33E-03*   1.33E-02*   1.36E-02*    7.18E-03   7.39E+01   EDIIS        0.
   9   -75.398936691  -116.417527418    36.785173040  -1.08E-04*   2.77E-03*   7.22E-03*    2.25E-03   7.37E+01   EDIIS        0.
  10   -75.399084865  -116.526807294    36.894304742  -1.48E-04*   2.11E-03*   1.75E-03*    2.95E-04   7.38E+01   EDIIS        0.
  11   -75.399087658  -116.498569025    36.866063679  -2.79E-06*   8.01E-04*   4.86E-04*    6.05E-05   7.38E+01   EDIIS        0.
  12   -75.399090211  -116.514877687    36.882369788  -2.55E-06*   3.59E-04*   1.98E-04*    1.53E-05   7.38E+01   c2DIIS       0.
  13   -75.399090597  -116.510633544    36.878125259  -3.86E-07*   1.24E-04    5.06E-05     4.51E-05   7.38E+01   QNRc2DIIS    0.
  14   -75.399090636  -116.510862559    36.878354236  -3.88E-08*   1.45E-04    3.33E-05     1.94E-04   7.38E+01   QNRc2DIIS    0.
  15   -75.399090649  -116.510484261    36.877975925  -1.31E-08*   1.84E-05    1.40E-05     1.57E-04   7.38E+01   QNRc2DIIS    0.
  16   -75.399090650  -116.510721098    36.878212760  -1.04E-09*   5.30E-07    2.01E-07     6.48E-05   7.38E+01   QNRc2DIIS    0.
 DIIS_X: Reduction of the subspace dimension due to numerical imbalance of the values in the B-Matrix
 kOptim=                    5 -> kOptim=                    4
  17   -75.399090650  -116.510720385    36.878212048  -4.41E-13    1.48E-08    8.98E-09     7.90E-04   7.38E+01   QNRc2DIIS    0.

       Convergence after  17 Macro Iterations
--

 *****************************************************************************************************************************
 *                                                                                                                           *
 *                                             SCF/KS-DFT Program, Final results                                             *
 *                                                                                                                           *
 *                                                                                                                           *
 *                                                                                                                           *
 *                                                       Final Results                                                       *
 *                                                                                                                           *
 *****************************************************************************************************************************

::    Total SCF energy                                -75.3990906503
      One-electron energy                            -116.5107203853
      Two-electron energy                              36.8782120478
      Nuclear repulsion energy                          4.2334176872
      Kinetic energy (interpolated)                    75.4089836534
      Virial theorem                                    0.9998688087
      Total spin, S(S+1)                                0.0000000000
      Total spin, S                                     0.0000000000
      Max non-diagonal density matrix element           0.0000000142
      Max non-diagonal Fock matrix element              0.0000000007


      All orbitals with orbital energies smaller than  E(LUMO)+0.5 are printed

++    Molecular orbitals:
      -------------------

      Title: SCF orbitals

      Molecular orbitals for symmetry species 1: a  

          Orbital            1         2         3         4         5         6         7         8    
          Energy          -20.1422   -0.8590   -0.2105   -0.0827   -0.0827    0.3739    0.7553    0.8111
          Occ. No.          2.0000    2.0000    2.0000    2.0000    2.0000    0.0000    0.0000    0.0000

        1 O1     1s         1.0005   -0.0024   -0.0048   -0.0000   -0.0000   -0.0164    0.0307   -0.0227
        2 O1     2s         0.0020    0.9009   -0.2918   -0.0000   -0.0000   -0.2380   -0.0745   -0.0912
        3 O1     *s         0.0001   -0.0035   -0.0117   -0.0000   -0.0000   -0.0493    0.1935   -0.0981
        4 O1     *s        -0.0022   -0.0412    0.0470    0.0000    0.0000    0.3396   -0.8804    0.5518
        5 O1     *s        -0.0004    0.0302   -0.1319   -0.0000   -0.0000   -1.7554   -3.7434    3.7169
        6 O1     2px        0.0067    0.0856    0.6866    0.0000    0.0000   -0.2390   -0.0357   -0.6068
        7 O1     *px       -0.0027    0.0018    0.0011   -0.0000    0.0000    0.0345    0.0342   -0.0285
        8 O1     *px       -0.0037    0.0043   -0.0045   -0.0000    0.0000   -0.1181   -1.0673    0.6273
        9 O1     *px       -0.0016   -0.0200    0.0783    0.0000    0.0000   -0.7212   -2.9102    2.3544
       10 O1     2py       -0.0000   -0.0000    0.0000   -0.1718   -0.8492   -0.0000   -0.0000   -0.0000
       11 O1     *py        0.0000    0.0000   -0.0000   -0.0011   -0.0053    0.0000    0.0000    0.0000
       12 O1     *py       -0.0000    0.0000   -0.0000    0.0053    0.0262   -0.0000   -0.0000   -0.0000
       13 O1     *py        0.0000    0.0000    0.0000   -0.0364   -0.1799    0.0000    0.0000    0.0000
       14 O1     2pz       -0.0000    0.0000   -0.0000    0.8492   -0.1718    0.0000    0.0000    0.0000
       15 O1     *pz        0.0000   -0.0000    0.0000    0.0053   -0.0011   -0.0000   -0.0000    0.0000
       16 O1     *pz        0.0000    0.0000   -0.0000   -0.0262    0.0053   -0.0000    0.0000   -0.0000
       17 O1     *pz        0.0000   -0.0000    0.0000    0.1799   -0.0364   -0.0000   -0.0000   -0.0000
       18 O1     *d2-      -0.0000   -0.0000    0.0000   -0.0003   -0.0015   -0.0000   -0.0000   -0.0000
       19 O1     *d2-      -0.0000    0.0000    0.0000   -0.0010   -0.0049   -0.0000   -0.0000   -0.0000
       20 O1     *d2-      -0.0000    0.0000    0.0000   -0.0024   -0.0118   -0.0000   -0.0000    0.0000
       21 O1     *d1-      -0.0000   -0.0000    0.0000    0.0000   -0.0000   -0.0000   -0.0000   -0.0000
       22 O1     *d1-      -0.0000   -0.0000   -0.0000    0.0000    0.0000    0.0000    0.0000    0.0000
       23 O1     *d1-      -0.0000    0.0000    0.0000    0.0000    0.0000   -0.0000   -0.0000   -0.0000
       24 O1     *d0       -0.0001   -0.0003   -0.0019   -0.0000   -0.0000    0.0011   -0.0057   -0.0017
       25 O1     *d0        0.0002   -0.0033   -0.0062    0.0000    0.0000   -0.0068    0.0244    0.0035
       26 O1     *d0        0.0002   -0.0026   -0.0137   -0.0000   -0.0000    0.0670    0.3501   -0.2453
       27 O1     *d1+      -0.0000   -0.0000    0.0000    0.0015   -0.0003   -0.0000   -0.0000   -0.0000
       28 O1     *d1+       0.0000    0.0000   -0.0000    0.0049   -0.0010   -0.0000    0.0000    0.0000
       29 O1     *d1+       0.0000   -0.0000   -0.0000    0.0118   -0.0024    0.0000    0.0000    0.0000
       30 O1     *d2+       0.0001    0.0006    0.0032    0.0000    0.0000   -0.0019    0.0099    0.0029
       31 O1     *d2+      -0.0003    0.0057    0.0107    0.0000    0.0000    0.0119   -0.0423   -0.0061
       32 O1     *d2+      -0.0003    0.0046    0.0237   -0.0000    0.0000   -0.1160   -0.6063    0.4248
       33 O1     *f3-      -0.0000   -0.0000    0.0000   -0.0002   -0.0008   -0.0000   -0.0000   -0.0000
       34 O1     *f3-      -0.0000    0.0000    0.0000   -0.0008   -0.0037   -0.0000    0.0000    0.0000
       35 O1     *f2-       0.0000    0.0000    0.0000   -0.0000   -0.0000    0.0000    0.0000    0.0000
       36 O1     *f2-      -0.0000   -0.0000    0.0000   -0.0000    0.0000   -0.0000   -0.0000   -0.0000
       37 O1     *f1-      -0.0000   -0.0000   -0.0000    0.0000    0.0002   -0.0000    0.0000    0.0000
       38 O1     *f1-      -0.0000   -0.0000   -0.0000    0.0002    0.0010    0.0000    0.0000   -0.0000
       39 O1     *f0        0.0000    0.0000    0.0000   -0.0005    0.0001    0.0000   -0.0000   -0.0000
       40 O1     *f0        0.0000   -0.0000    0.0000   -0.0024    0.0005   -0.0000   -0.0000   -0.0000
       41 O1     *f1+      -0.0000   -0.0005   -0.0012   -0.0000   -0.0000   -0.0023   -0.0012    0.0010
       42 O1     *f1+       0.0001   -0.0015   -0.0024    0.0000   -0.0000    0.0142    0.0787   -0.0261
       43 O1     *f2+      -0.0000   -0.0000   -0.0000    0.0006   -0.0001   -0.0000   -0.0000   -0.0000
       44 O1     *f2+       0.0000    0.0000   -0.0000    0.0030   -0.0006    0.0000    0.0000    0.0000
       45 O1     *f3+       0.0000    0.0006    0.0015   -0.0000   -0.0000    0.0030    0.0015   -0.0012
       46 O1     *f3+      -0.0001    0.0019    0.0031   -0.0000    0.0000   -0.0184   -0.1016    0.0337
       47 O1     *g4-      -0.0000    0.0000   -0.0000   -0.0000   -0.0002   -0.0000   -0.0000    0.0000
       48 O1     *g3-      -0.0000   -0.0000    0.0000   -0.0000    0.0000   -0.0000   -0.0000   -0.0000
       49 O1     *g2-      -0.0000   -0.0000   -0.0000    0.0000    0.0001    0.0000    0.0000    0.0000
       50 O1     *g1-      -0.0000   -0.0000    0.0000    0.0000   -0.0000    0.0000    0.0000   -0.0000
       51 O1     *g0       -0.0000    0.0001    0.0002   -0.0000    0.0000   -0.0011   -0.0057    0.0025
       52 O1     *g1+      -0.0000    0.0000    0.0000   -0.0002    0.0000   -0.0000   -0.0000   -0.0000
       53 O1     *g2+       0.0000   -0.0002   -0.0003   -0.0000    0.0000    0.0016    0.0084   -0.0037
       54 O1     *g3+       0.0000    0.0000   -0.0000    0.0002   -0.0000    0.0000   -0.0000    0.0000
       55 O1     *g4+      -0.0000    0.0003    0.0004    0.0000    0.0000   -0.0022   -0.0111    0.0049
       56 H2     1s        -0.0005    0.4173    0.6986    0.0000    0.0000   -0.1616    0.3031    0.5379
       57 H2     *s         0.0010   -0.0191   -0.0168    0.0000   -0.0000    0.1670    0.1949   -0.2698
       58 H2     *s         0.0008   -0.1413   -0.1833   -0.0000   -0.0000    0.4576    5.4710   -3.0583
       59 H2     *s        -0.0001   -0.0987   -0.1192   -0.0000   -0.0000    1.9769   -0.4560   -1.4460
       60 H2     *px        0.0000   -0.0062   -0.0050   -0.0000   -0.0000   -0.0081    0.0572    0.0256
       61 H2     *px       -0.0007   -0.0105   -0.0112   -0.0000    0.0000    0.0248   -0.5691    0.0766
       62 H2     *px       -0.0002   -0.0075    0.0420    0.0000    0.0000   -0.4328   -1.4053    2.2908
       63 H2     *py       -0.0000   -0.0000   -0.0000   -0.0010   -0.0047    0.0000   -0.0000   -0.0000
       64 H2     *py        0.0000   -0.0000    0.0000   -0.0017   -0.0083   -0.0000    0.0000    0.0000
       65 H2     *py        0.0000   -0.0000    0.0000   -0.0062   -0.0307    0.0000   -0.0000   -0.0000
       66 H2     *pz        0.0000    0.0000   -0.0000    0.0047   -0.0010    0.0000    0.0000    0.0000
       67 H2     *pz       -0.0000   -0.0000    0.0000    0.0083   -0.0017   -0.0000   -0.0000   -0.0000
       68 H2     *pz       -0.0000   -0.0000   -0.0000    0.0307   -0.0062    0.0000    0.0000    0.0000
       69 H2     *d2-       0.0000    0.0000    0.0000    0.0004    0.0021   -0.0000   -0.0000   -0.0000
       70 H2     *d2-      -0.0000    0.0000   -0.0000    0.0007    0.0033   -0.0000    0.0000    0.0000
       71 H2     *d1-      -0.0000    0.0000    0.0000    0.0000    0.0000   -0.0000    0.0000    0.0000
       72 H2     *d1-       0.0000    0.0000   -0.0000   -0.0000   -0.0000    0.0000   -0.0000    0.0000
       73 H2     *d0       -0.0000   -0.0011   -0.0014   -0.0000   -0.0000    0.0019   -0.0091   -0.0043
       74 H2     *d0       -0.0001   -0.0011    0.0020    0.0000    0.0000   -0.0075   -0.1612    0.1183
       75 H2     *d1+      -0.0000   -0.0000    0.0000   -0.0021    0.0004   -0.0000   -0.0000   -0.0000
       76 H2     *d1+       0.0000    0.0000   -0.0000   -0.0033    0.0007    0.0000    0.0000    0.0000
       77 H2     *d2+       0.0000    0.0019    0.0025    0.0000    0.0000   -0.0033    0.0158    0.0074
       78 H2     *d2+       0.0002    0.0018   -0.0034   -0.0000   -0.0000    0.0130    0.2793   -0.2049
       79 H2     *f3-       0.0000   -0.0000   -0.0000   -0.0003   -0.0017    0.0000    0.0000    0.0000
       80 H2     *f2-       0.0000    0.0000    0.0000   -0.0000    0.0000   -0.0000   -0.0000   -0.0000
       81 H2     *f1-      -0.0000   -0.0000   -0.0000    0.0001    0.0004   -0.0000    0.0000    0.0000
       82 H2     *f0        0.0000    0.0000    0.0000   -0.0011    0.0002   -0.0000    0.0000   -0.0000
       83 H2     *f1+       0.0000    0.0006   -0.0001    0.0000   -0.0000   -0.0056    0.0220   -0.0100
       84 H2     *f2+      -0.0000   -0.0000    0.0000    0.0014   -0.0003    0.0000   -0.0000    0.0000
       85 H2     *f3+      -0.0000   -0.0008    0.0001   -0.0000    0.0000    0.0073   -0.0284    0.0130
--


++    Molecular charges:
      ------------------

      Mulliken charges per centre and basis function type
      ---------------------------------------------------

                O1      H2    
      1s       2.0010  1.2814
      2s       1.8751  0.0000
      2px      1.2783  0.0000
      2pz      1.7123  0.0000
      2py      1.7123  0.0000
      *s      -0.0101 -0.5957
      *px      0.1123  0.0385
      *pz      0.2431  0.0395
      *py      0.2431  0.0395
      *d2+     0.0115  0.0020
      *d1+     0.0012  0.0032
      *d0      0.0038  0.0007
      *d1-     0.0000  0.0000
      *d2-     0.0012  0.0032
      *f3+     0.0006  0.0001
      *f2+     0.0001  0.0004
      *f1+     0.0004  0.0001
      *f0      0.0001  0.0002
      *f1-     0.0000  0.0000
      *f2-     0.0000  0.0000
      *f3-     0.0001  0.0006
      *g4+     0.0000  0.0000
      *g3+     0.0000  0.0000
      *g2+     0.0000  0.0000
      *g1+     0.0000  0.0000
      *g0      0.0000  0.0000
      *g1-     0.0000  0.0000
      *g2-     0.0000  0.0000
      *g3-     0.0000  0.0000
      *g4-     0.0000  0.0000
      Total    9.1863  0.8137

      N-E     -1.1863  0.1863

      Total electronic charge=   10.000000

      Total            charge=   -1.000000
--


++    Molecular properties:
      ---------------------

      Charge (e):
                      =   -1.0000
      Dipole Moment (Debye):
      Origin of the operator (Ang)=    0.0000    0.0000    0.0000
                   X=  9.1222E-01               Y=  1.6888E-14               Z= -8.6046E-15           Total=  9.1222E-01
      Center of Charge (Ang)
                     X=   -0.18991993               Y=   -0.00000000               Z=    0.00000000
      Quadrupole Moment (Debye*Ang):
      Origin of the operator (Ang)=    0.0593    0.0000    0.0000
                  XX= -7.0071E+00              XY=  1.1401E-15              XZ=  8.4851E-15              YY= -8.8354E+00
                  YZ=  2.0541E-17              ZZ= -8.8354E+00
      In traceless form (Debye*Ang)
                  XX=  1.8283E+00              XY=  1.7101E-15              XZ=  1.2728E-14              YY= -9.1414E-01
                  YZ=  3.0812E-17              ZZ= -9.1414E-01
--


      Input file to MOLDEN was generated!

 ###############################################################################
 ###############################################################################
 ###                                                                         ###
 ###                                                                         ###
 ###    WARNING: RunFile label nBas                                          ###
 ###    was used       59 times                                              ###
 ###                                                                         ###
 ###                                                                         ###
 ###############################################################################
 ###############################################################################
--- Stop Module: scf at Tue May  7 13:11:58 2024 /rc=_RC_ALL_IS_WELL_ ---
*** files: 0507.scf.molden 0507.ScfOrb xmldump
    saved to directory /home/kenya/molcas_test/0507
--- Module scf spent 2 seconds ---

*** symbolic link created: INPORB -> 0507.ScfOrb
--- Start Module: gateway at Tue May  7 13:11:58 2024 ---

()()()()()()()()()()()()()()()()()()()()()()()()()()()()()()()()()()()()()()()()()()()()()()()()()()

                                              &GATEWAY

                                   only a single process is used
                       available to each process: 2.0 GB of memory, 1 thread
                                             pid: 14975
()()()()()()()()()()()()()()()()()()()()()()()()()()()()()()()()()()()()()()()()()()()()()()()()()()


++    Symmetry information:
      ---------------------

                    Character Table for C1 

                             E  
                    a        1  x, y, xy, Rz, z, xz, Ry, yz, Rx, I
--


++    Basis set information:
      ----------------------


      Basis set label: O.CC-PVQZ.........

      Electronic valence basis set:
      ------------------
      Associated Effective Charge   8.000000 au
      Associated Actual Charge      8.000000 au
      Nuclear Model: Point charge

      Shell  nPrim  nBasis  Cartesian Spherical Contaminant
         s      12       5        X                  
         p       6       4        X                  
         d       3       3                 X         
         f       2       2                 X         
         g       1       1                 X         


      Basis set label: H.CC-PVQZ.........

      Electronic valence basis set:
      ------------------
      Associated Effective Charge   1.000000 au
      Associated Actual Charge      1.000000 au
      Nuclear Model: Point charge

      Shell  nPrim  nBasis  Cartesian Spherical Contaminant
         s       6       4        X                  
         p       3       3        X                  
         d       2       2                 X         
         f       1       1                 X         
--


++    Molecular structure info:
      -------------------------

                    ************************************************ 
                    **** Cartesian Coordinates / Bohr, Angstrom **** 
                    ************************************************ 

     Center  Label                x              y              z                     x              y              z
        1      O1               0.000000       0.000000       0.000000              0.000000       0.000000       0.000000
        2      H2               1.889726       0.000000       0.000000              1.000000       0.000000       0.000000
--


            Nuclear Potential Energy              4.23341769 au

--- Stop Module: gateway at Tue May  7 13:11:58 2024 /rc=_RC_ALL_IS_WELL_ ---
*** files: xmldump
    saved to directory /home/kenya/molcas_test/0507

*** symbolic link created: INPORB -> 0507.ScfOrb
--- Start Module: seward at Tue May  7 13:11:58 2024 ---

()()()()()()()()()()()()()()()()()()()()()()()()()()()()()()()()()()()()()()()()()()()()()()()()()()

                                              &SEWARD

                                   only a single process is used
                       available to each process: 2.0 GB of memory, 1 thread
                                             pid: 14985
()()()()()()()()()()()()()()()()()()()()()()()()()()()()()()()()()()()()()()()()()()()()()()()()()()

               SEWARD will generate:
                  Multipole Moment integrals up to order  2
                  Kinetic Energy integrals
                  Nuclear Attraction integrals (point charge)
                  One-Electron Hamiltonian integrals
                  Velocity integrals
                  Orbital angular momentum around ( 0.1120  0.0000  0.0000 )
                  Velocity quadrupole around ( 0.1120  0.0000  0.0000 )
                  Two-Electron Repulsion integrals

                   Integrals are discarded if absolute value <: 1.00E-14
                   Integral cutoff threshold is set to       <: 1.00E-16

            Nuclear Potential Energy              4.23341769 au


      Basis set specifications :
      Symmetry species         a  
      Basis functions           85


      Input file to MOLDEN was generated!

--- Stop Module: seward at Tue May  7 13:11:59 2024 /rc=_RC_ALL_IS_WELL_ ---
*** files: 0507.GssOrb 0507.guessorb.molden xmldump
    saved to directory /home/kenya/molcas_test/0507
--- Module seward spent 1 second ---

*** symbolic link created: INPORB -> 0507.ScfOrb
--- Start Module: scf at Tue May  7 13:11:59 2024 ---

()()()()()()()()()()()()()()()()()()()()()()()()()()()()()()()()()()()()()()()()()()()()()()()()()()

                                                &SCF

                                   only a single process is used
                       available to each process: 2.0 GB of memory, 1 thread
                                             pid: 15000
()()()()()()()()()()()()()()()()()()()()()()()()()()()()()()()()()()()()()()()()()()()()()()()()()()

++    Input section:
      --------------

      Header of the integral files:
      
       Integrals generated by Gateway/Seward, Tue May  7 13:11:58 2024


      Cartesian coordinates in Angstrom:
      -----------------------------------------------------
      No.  Label        X            Y            Z        
      -----------------------------------------------------
       1   O1         0.00000000   0.00000000   0.00000000
       2   H2         1.00000000   0.00000000   0.00000000
      -----------------------------------------------------
      Nuclear repulsion energy =    4.23341769
--

++    Orbital specifications:
      -----------------------

      Symmetry species               1
                                     a
      Frozen orbitals                0
      Start temperature = 0.500
      End temperature   = 0.010
      Temperature Factor= 0.460
      Deleted orbitals               0
      Total number of orbitals      85
      Number of basis functions     85
--

      Molecular charge                           0.000

++    Optimization specifications:
      ----------------------------

      SCF Algorithm: Conventional USCF
      D(i)-D(i-1) density differences are used
      Number of density matrices in core                 5
      Maximum number of NDDO SCF iterations            400
      Maximum number of HF SCF iterations              400
      Threshold for SCF energy change             1.00E-09
      Threshold for density matrix                1.00E-04
      Threshold for Fock matrix                   1.50E-04
      Threshold for linear dependence             1.00E-09
      Threshold at which DIIS is turned on        1.50E-01
      Maximum depth in the DIIS procedure                5
      Maximum depth in the BFGS Hessian update          30
      Threshold at which QNR/C2DIIS is turned on  7.50E-02
      Threshold for Norm(delta) (QNR/C2DIIS)      1.00E-03
      All orbitals punched on: UHFORB
--

      Input vectors read from INPORB
      Orbital file label: * SCF orbitals


++ Convergence information
                               UHF SCF        iterations: Energy and convergence statistics

Iter     Tot. SCF        One-elec.       Two-elec.     Energy      Max Dij or  Max Fij      DNorm      TNorm      AccCon     Time
         Energy          Energy          Energy        Change      Delta Norm                                                in Sec.
   1   -71.540406996  -101.762848035    25.989023352   0.00E+00    2.27E-01*   3.52E-01*    6.82E+01   6.12E+01   None         0.
   2   -74.317506163  -116.094254762    37.543330912  -2.78E+00*   4.17E-01*   5.82E-01*    6.58E+01   7.23E+01   EDIIS        0.
   3   -74.630797221  -107.411045403    28.546830495  -3.13E-01*   1.47E-01*   3.57E-01*    5.03E+00   6.49E+01   EDIIS        0.
   4   -75.217838156  -113.681590451    34.230334607  -5.87E-01*   1.28E-01*   1.74E-01*    3.68E+00   7.01E+01   EDIIS        0.
   5   -75.253286489  -111.349743065    31.863038888  -3.54E-02*   7.65E-02*   1.20E-01*    9.96E-01   6.82E+01   EDIIS        0.
   6   -75.267259436  -112.622422717    33.121745594  -1.40E-02*   4.17E-02*   5.80E-02*    4.94E-01   6.92E+01   EDIIS        0.
   7   -75.269593280  -112.008619881    32.505608913  -2.33E-03*   2.06E-02*   3.05E-02*    2.74E-01   6.88E+01   EDIIS        0.
   8   -75.270567891  -112.330034273    32.826048695  -9.75E-04*   1.05E-02*   1.41E-02*    1.20E-01   6.90E+01   EDIIS        0.
   9   -75.270707259  -112.182315293    32.678190347  -1.39E-04*   5.42E-03*   7.46E-03*    6.55E-02   6.89E+01   EDIIS        0.
  10   -75.270762851  -112.260569114    32.756388575  -5.56E-05*   2.73E-03*   3.61E-03*    3.12E-02   6.90E+01   EDIIS        0.
  11   -75.273268716  -112.222792513    32.716106111  -2.51E-03*   1.43E-02*   1.05E-02*    1.34E-01   6.89E+01   EDIIS        0.
  12   -75.412307114  -112.293195954    32.647471152  -1.39E-01*   1.21E-01*   6.78E-02*    8.80E-01   6.90E+01   EDIIS        0.
  13   -75.420890345  -112.500230350    32.845922318  -8.58E-03*   4.92E-02*   2.63E-02*    2.69E-01   6.92E+01   EDIIS        0.

       Fermi aufbau procedure completed!
      nOcc(alpha)=    5
      nOcc(beta) =    4

  14   -75.422999054  -112.427768961    32.771352220  -2.11E-03*   3.29E-02*   1.78E-02*    1.45E-01   6.91E+01   EDIIS        0.
  15   -75.423629439  -112.470762171    32.813715044  -6.30E-04*   1.47E-02*   7.94E-03*    8.29E-02   6.92E+01   EDIIS        0.
  16   -75.423834479  -112.452469745    32.795217580  -2.05E-04*   9.71E-03*   5.28E-03*    4.63E-02   6.91E+01   EDIIS        0.
  17   -75.423904137  -112.462371008    32.805049183  -6.97E-05*   4.70E-03*   2.56E-03*    2.73E-02   6.92E+01   EDIIS        0.
  18   -75.423928723  -112.457985716    32.800639306  -2.46E-05*   1.19E-03*   4.00E-03*    1.58E-02   6.91E+01   c2DIIS       0.
  19   -75.423942742  -112.463578309    32.806217880  -1.40E-05*   1.34E-03*   2.89E-04*    6.54E-03   6.92E+01   QNRc2DIIS    0.
  20   -75.423943269  -112.457880073    32.800519117  -5.27E-07*   6.35E-04    2.03E-04*    3.32E-03   6.91E+01   QNRc2DIIS    0.
  21   -75.423943489  -112.459163672    32.801802496  -2.20E-07*   1.27E-03*   9.75E-05     1.20E-03   6.91E+01   QNRc2DIIS    0.
  22   -75.423943632  -112.459820140    32.802458820  -1.43E-07*   9.91E-05    1.43E-05     2.19E-03   6.92E+01   QNRc2DIIS    0.
  23   -75.423943634  -112.459799086    32.802437765  -1.41E-09*   5.58E-06    1.06E-06     2.15E-04   6.92E+01   QNRc2DIIS    0.
  24   -75.423943634  -112.459799193    32.802437872  -7.99E-12    5.25E-07    1.51E-07     1.26E-05   6.92E+01   QNRc2DIIS    0.

       Convergence after  24 Macro Iterations
--

 *****************************************************************************************************************************
 *                                                                                                                           *
 *                                             SCF/KS-DFT Program, Final results                                             *
 *                                                                                                                           *
 *                                                                                                                           *
 *                                                                                                                           *
 *                                                       Final Results                                                       *
 *                                                                                                                           *
 *****************************************************************************************************************************

::    Total SCF energy                                -75.4239436339
      One-electron energy                            -112.4597991935
      Two-electron energy                              32.8024378724
      Nuclear repulsion energy                          4.2334176872
      Kinetic energy (interpolated)                    75.3422057683
      Virial theorem                                    1.0010848881
      Total spin, S(S+1)                                0.7571390464
      Total spin, S                                     0.5035631751
      Max non-diagonal density matrix element           0.0000003035
      Max non-diagonal Fock matrix element              0.0000000210


      All orbitals with orbital energies smaller than  E(LUMO)+0.5 are printed

++    Molecular orbitals:
      -------------------

      Title: UHF orbitals (alpha)

      Molecular orbitals for symmetry species 1: a  

          Orbital            1         2         3         4         5         6         7         8         9        10    
          Energy          -20.6371   -1.3782   -0.6716   -0.6550   -0.5581    0.1152    0.4468    0.4876    0.5311    0.5665
          Occ. No.          1.0000    1.0000    1.0000    1.0000    1.0000    0.0000    0.0000    0.0000    0.0000    0.0000

        1 O1     1s         0.9990   -0.0016   -0.0028    0.0000   -0.0000   -0.0130    0.0124   -0.0310   -0.0000    0.0000
        2 O1     2s        -0.0004    0.9523   -0.2656   -0.0000   -0.0000   -0.2545   -0.1040   -0.0121    0.0000    0.0000
        3 O1     *s         0.0021   -0.0030   -0.0052   -0.0000   -0.0000   -0.0345    0.1033   -0.1597   -0.0000    0.0000
        4 O1     *s        -0.0009   -0.0040   -0.0123   -0.0000    0.0000    0.2087   -0.4584    0.8228    0.0000   -0.0000
        5 O1     *s         0.0003   -0.0311   -0.1177    0.0000    0.0000   -1.3247   -1.2042    4.3406   -0.0000   -0.0000
        6 O1     2px        0.0070    0.0941    0.7945    0.0000    0.0000   -0.2623   -0.3378   -0.4925    0.0000    0.0000
        7 O1     *px       -0.0026    0.0034    0.0008    0.0000   -0.0000    0.0222    0.0134   -0.0303    0.0000   -0.0000
        8 O1     *px       -0.0037    0.0078   -0.0151    0.0000    0.0000   -0.0925   -0.5420    0.8736   -0.0000   -0.0000
        9 O1     *px       -0.0017   -0.0141   -0.0366    0.0000   -0.0000   -0.5319   -1.1970    3.2723   -0.0000   -0.0000
       10 O1     2py       -0.0000   -0.0000    0.0000   -0.6997    0.6804   -0.0000   -0.0000    0.0000    0.4807   -0.4993
       11 O1     *py        0.0000    0.0000   -0.0000   -0.0021   -0.0009    0.0000    0.0000    0.0000   -0.0935    0.1011
       12 O1     *py        0.0000   -0.0000    0.0000   -0.0032   -0.0028   -0.0000   -0.0000   -0.0000    0.3095   -0.3231
       13 O1     *py       -0.0000   -0.0000   -0.0000    0.0080    0.0221    0.0000   -0.0000   -0.0000   -0.9787    0.9612
       14 O1     2pz        0.0000    0.0000   -0.0000    0.6958    0.6842   -0.0000    0.0000   -0.0000   -0.4780   -0.5022
       15 O1     *pz       -0.0000   -0.0000    0.0000    0.0021   -0.0009    0.0000    0.0000    0.0000    0.0930    0.1017
       16 O1     *pz        0.0000    0.0000    0.0000    0.0031   -0.0028   -0.0000   -0.0000   -0.0000   -0.3078   -0.3249
       17 O1     *pz       -0.0000   -0.0000    0.0000   -0.0080    0.0223   -0.0000   -0.0000    0.0000    0.9732    0.9666
       18 O1     *d2-       0.0000    0.0000    0.0000   -0.0013    0.0013   -0.0000   -0.0000   -0.0000   -0.0016    0.0015
       19 O1     *d2-       0.0000   -0.0000    0.0000   -0.0052    0.0050    0.0000    0.0000    0.0000    0.0088   -0.0084
       20 O1     *d2-      -0.0000   -0.0000   -0.0000   -0.0110    0.0101    0.0000    0.0000    0.0000   -0.0397    0.0330
       21 O1     *d1-      -0.0007   -0.0019    0.0007    0.0000   -0.0000    0.0003    0.0008   -0.0002   -0.0000    0.0000
       22 O1     *d1-       0.0002   -0.0105    0.0032    0.0000    0.0000    0.0033    0.0015   -0.0019   -0.0000   -0.0000
       23 O1     *d1-      -0.0001   -0.0087    0.0044   -0.0000    0.0000   -0.0014    0.0112    0.0003    0.0000   -0.0000
       24 O1     *d0        0.0001    0.0001   -0.0021   -0.0000    0.0000    0.0005   -0.0059    0.0011   -0.0000    0.0000
       25 O1     *d0        0.0001   -0.0005   -0.0081    0.0000   -0.0000   -0.0053    0.0166   -0.0050    0.0000   -0.0000
       26 O1     *d0        0.0002   -0.0012   -0.0113   -0.0000    0.0000    0.0444    0.1378   -0.3365    0.0000    0.0000
       27 O1     *d1+      -0.0000   -0.0000    0.0000    0.0013    0.0013   -0.0000    0.0000    0.0000    0.0016    0.0016
       28 O1     *d1+       0.0000    0.0000   -0.0000    0.0051    0.0050    0.0000   -0.0000    0.0000   -0.0087   -0.0084
       29 O1     *d1+       0.0000   -0.0000    0.0000    0.0109    0.0101    0.0000    0.0000    0.0000    0.0395    0.0332
       30 O1     *d2+      -0.0003   -0.0003    0.0037   -0.0000   -0.0000   -0.0008    0.0102   -0.0018    0.0000   -0.0000
       31 O1     *d2+      -0.0001    0.0008    0.0141    0.0000    0.0000    0.0092   -0.0288    0.0087   -0.0000   -0.0000
       32 O1     *d2+      -0.0003    0.0020    0.0196    0.0000    0.0000   -0.0770   -0.2385    0.5829   -0.0000   -0.0000
       33 O1     *f3-       0.0000    0.0000   -0.0000    0.0002   -0.0001   -0.0000   -0.0000   -0.0000    0.0017   -0.0015
       34 O1     *f3-      -0.0000   -0.0000   -0.0000   -0.0003   -0.0002    0.0000    0.0000    0.0000   -0.0096    0.0080
       35 O1     *f2-      -0.0000   -0.0003   -0.0017   -0.0000   -0.0000    0.0006    0.0006    0.0012    0.0000    0.0000
       36 O1     *f2-       0.0000   -0.0009   -0.0049   -0.0000   -0.0000    0.0014    0.0033    0.0012   -0.0000   -0.0000
       37 O1     *f1-      -0.0000   -0.0000   -0.0000   -0.0019   -0.0018    0.0000   -0.0000    0.0000    0.0010    0.0019
       38 O1     *f1-       0.0000    0.0000    0.0000   -0.0053   -0.0056   -0.0000    0.0000    0.0000    0.0027   -0.0015
       39 O1     *f0       -0.0000   -0.0000    0.0000   -0.0010    0.0012    0.0000    0.0000    0.0000    0.0019    0.0000
       40 O1     *f0       -0.0000    0.0000   -0.0000   -0.0036    0.0035   -0.0000    0.0000   -0.0000   -0.0059   -0.0054
       41 O1     *f1+      -0.0000   -0.0003   -0.0003    0.0000    0.0000   -0.0018   -0.0005    0.0010   -0.0000   -0.0000
       42 O1     *f1+       0.0001   -0.0011   -0.0005    0.0000   -0.0000    0.0090    0.0417   -0.0552    0.0000    0.0000
       43 O1     *f2+       0.0000    0.0000    0.0000   -0.0016    0.0013    0.0000    0.0000   -0.0000   -0.0002   -0.0024
       44 O1     *f2+       0.0000    0.0000   -0.0000   -0.0040    0.0043   -0.0000   -0.0000    0.0000    0.0080    0.0061
       45 O1     *f3+       0.0000    0.0004    0.0004   -0.0000    0.0000    0.0023    0.0006   -0.0013    0.0000   -0.0000
       46 O1     *f3+      -0.0001    0.0014    0.0006    0.0000   -0.0000   -0.0116   -0.0538    0.0712   -0.0000   -0.0000
       47 O1     *g4-       0.0000   -0.0000   -0.0000   -0.0002    0.0001    0.0000    0.0000    0.0000   -0.0000   -0.0002
       48 O1     *g3-       0.0000   -0.0001   -0.0002    0.0000    0.0000    0.0000   -0.0003    0.0002    0.0000    0.0000
       49 O1     *g2-       0.0000    0.0000   -0.0000   -0.0001   -0.0002   -0.0000   -0.0000   -0.0000   -0.0000    0.0000
       50 O1     *g1-      -0.0000    0.0000    0.0001    0.0000    0.0000   -0.0000    0.0001   -0.0001    0.0000   -0.0000
       51 O1     *g0       -0.0000    0.0000    0.0001   -0.0000    0.0000   -0.0007   -0.0029    0.0043   -0.0000    0.0000
       52 O1     *g1+      -0.0000   -0.0000    0.0000   -0.0002   -0.0001    0.0000    0.0000   -0.0000   -0.0000    0.0002
       53 O1     *g2+       0.0000   -0.0002   -0.0002    0.0000   -0.0000    0.0011    0.0045   -0.0065    0.0000   -0.0000
       54 O1     *g3+       0.0000   -0.0000   -0.0000    0.0000    0.0002    0.0000   -0.0000   -0.0000   -0.0000   -0.0001
       55 O1     *g4+      -0.0000    0.0002    0.0002    0.0000   -0.0000   -0.0014   -0.0058    0.0085   -0.0000   -0.0000
       56 H2     1s        -0.0000    0.3730    0.6609    0.0000    0.0000    0.0305    0.6672    0.3382   -0.0000   -0.0000
       57 H2     *s         0.0007   -0.0178   -0.0178   -0.0000   -0.0000    0.1075    0.0146   -0.2813    0.0000    0.0000
       58 H2     *s         0.0006   -0.1411   -0.1136   -0.0000    0.0000    0.3401    2.9545   -4.6644    0.0000    0.0000
       59 H2     *s        -0.0003   -0.1090   -0.1706   -0.0000   -0.0000    1.6846   -1.2862   -1.0268    0.0000    0.0000
       60 H2     *px        0.0000   -0.0063   -0.0064   -0.0000    0.0000   -0.0028    0.0529   -0.0060   -0.0000   -0.0000
       61 H2     *px       -0.0006   -0.0114   -0.0166    0.0000   -0.0000    0.0190   -0.3761    0.3061   -0.0000   -0.0000
       62 H2     *px       -0.0001   -0.0057   -0.0191   -0.0000   -0.0000   -0.2770   -0.1184    2.2782   -0.0000   -0.0000
       63 H2     *py       -0.0000   -0.0000   -0.0000   -0.0026    0.0028    0.0000    0.0000    0.0000   -0.0121    0.0127
       64 H2     *py        0.0000    0.0000    0.0000   -0.0066    0.0073   -0.0000   -0.0000   -0.0000    0.0428   -0.0457
       65 H2     *py       -0.0000    0.0000    0.0000   -0.0137    0.0184   -0.0000    0.0000    0.0000   -0.0935    0.1178
       66 H2     *pz        0.0000    0.0000    0.0000    0.0026    0.0028    0.0000    0.0000    0.0000    0.0120    0.0128
       67 H2     *pz       -0.0000   -0.0000   -0.0000    0.0066    0.0073   -0.0000    0.0000   -0.0000   -0.0426   -0.0460
       68 H2     *pz       -0.0000   -0.0000   -0.0000    0.0136    0.0185    0.0000    0.0000    0.0000    0.0930    0.1185
       69 H2     *d2-      -0.0000   -0.0000   -0.0000    0.0013   -0.0013   -0.0000   -0.0000   -0.0000    0.0043   -0.0044
       70 H2     *d2-       0.0000   -0.0000   -0.0000    0.0028   -0.0035    0.0000    0.0000    0.0000   -0.0223    0.0203
       71 H2     *d1-      -0.0000   -0.0001    0.0001   -0.0000   -0.0000    0.0002   -0.0001    0.0002   -0.0000   -0.0000
       72 H2     *d1-       0.0000   -0.0004   -0.0020   -0.0000   -0.0000   -0.0010   -0.0021   -0.0011    0.0000    0.0000
       73 H2     *d0       -0.0000   -0.0012   -0.0013    0.0000   -0.0000    0.0015   -0.0084    0.0008   -0.0000   -0.0000
       74 H2     *d0       -0.0001   -0.0006   -0.0021   -0.0000    0.0000   -0.0061   -0.0701    0.1538   -0.0000   -0.0000
       75 H2     *d1+       0.0000    0.0000    0.0000   -0.0013   -0.0013   -0.0000   -0.0000   -0.0000   -0.0043   -0.0044
       76 H2     *d1+       0.0000   -0.0000    0.0000   -0.0028   -0.0035    0.0000   -0.0000    0.0000    0.0222    0.0204
       77 H2     *d2+       0.0000    0.0021    0.0023    0.0000   -0.0000   -0.0025    0.0146   -0.0014    0.0000   -0.0000
       78 H2     *d2+       0.0001    0.0011    0.0036   -0.0000    0.0000    0.0105    0.1214   -0.2663    0.0000    0.0000
       79 H2     *f3-      -0.0000    0.0000   -0.0000   -0.0008    0.0009   -0.0000   -0.0000   -0.0000   -0.0053    0.0061
       80 H2     *f2-       0.0000    0.0002    0.0003    0.0000   -0.0000   -0.0001    0.0006   -0.0001   -0.0000    0.0000
       81 H2     *f1-       0.0000    0.0000   -0.0000    0.0001   -0.0004    0.0000    0.0000    0.0000    0.0012   -0.0018
       82 H2     *f0        0.0000    0.0000   -0.0000   -0.0006   -0.0005   -0.0000   -0.0000   -0.0000   -0.0035   -0.0037
       83 H2     *f1+      -0.0000    0.0005    0.0005    0.0000   -0.0000   -0.0036    0.0128   -0.0162    0.0000    0.0000
       84 H2     *f2+      -0.0000   -0.0000    0.0000    0.0006    0.0008    0.0000    0.0000    0.0000    0.0042    0.0051
       85 H2     *f3+       0.0000   -0.0006   -0.0007    0.0000   -0.0000    0.0046   -0.0165    0.0209   -0.0000   -0.0000
--


      All orbitals with orbital energies smaller than  E(LUMO)+0.5 are printed

++    Molecular orbitals:
      -------------------

      Title: UHF orbitals (beta)

      Molecular orbitals for symmetry species 1: a  

          Orbital            1         2         3         4         5         6         7         8         9    
          Energy          -20.5972   -1.2181   -0.6286   -0.5109    0.1008    0.1222    0.4530    0.4974    0.5786
          Occ. No.          1.0000    1.0000    1.0000    1.0000    0.0000    0.0000    0.0000    0.0000    0.0000

        1 O1     1s         1.0015   -0.0025   -0.0027    0.0000    0.0000   -0.0128    0.0147    0.0303    0.0000
        2 O1     2s         0.0027    0.9000   -0.3103    0.0000    0.0000   -0.2555   -0.1214    0.0216   -0.0000
        3 O1     *s        -0.0018   -0.0053   -0.0051    0.0000    0.0000   -0.0342    0.1155    0.1537    0.0000
        4 O1     *s        -0.0022   -0.0179   -0.0000   -0.0000   -0.0000    0.2283   -0.5029   -0.7937   -0.0000
        5 O1     *s        -0.0006   -0.0127   -0.1267   -0.0000    0.0000   -1.3918   -1.6119   -4.3381   -0.0000
        6 O1     2px        0.0072    0.1096    0.7549   -0.0000    0.0000   -0.2610   -0.3053    0.5293    0.0000
        7 O1     *px       -0.0030    0.0030   -0.0021    0.0000   -0.0000    0.0246    0.0185    0.0282   -0.0000
        8 O1     *px       -0.0035   -0.0011   -0.0096   -0.0000    0.0000   -0.0969   -0.6196   -0.8469   -0.0000
        9 O1     *px       -0.0017   -0.0242   -0.0080   -0.0000    0.0000   -0.5583   -1.4889   -3.1968   -0.0000
       10 O1     2py       -0.0000   -0.0000    0.0000    0.6628   -0.4645   -0.0000    0.0000    0.0000   -0.5141
       11 O1     *py        0.0000    0.0000    0.0000   -0.0030   -0.0137   -0.0000   -0.0000   -0.0000    0.1049
       12 O1     *py        0.0000   -0.0000   -0.0000   -0.0030    0.0396    0.0000    0.0000    0.0000   -0.3327
       13 O1     *py       -0.0000    0.0000   -0.0000    0.0466   -0.3083   -0.0000   -0.0000   -0.0000    0.9491
       14 O1     2pz       -0.0000   -0.0000    0.0000    0.6665    0.4619    0.0000    0.0000    0.0000   -0.5170
       15 O1     *pz       -0.0000    0.0000    0.0000   -0.0030    0.0137   -0.0000   -0.0000    0.0000    0.1055
       16 O1     *pz        0.0000   -0.0000   -0.0000   -0.0030   -0.0394   -0.0000    0.0000    0.0000   -0.3346
       17 O1     *pz       -0.0000    0.0000   -0.0000    0.0468    0.3065    0.0000   -0.0000   -0.0000    0.9544
       18 O1     *d2-       0.0000    0.0000   -0.0000    0.0011   -0.0012   -0.0000   -0.0000    0.0000    0.0017
       19 O1     *d2-      -0.0000   -0.0000   -0.0000    0.0043   -0.0015    0.0000    0.0000   -0.0000   -0.0080
       20 O1     *d2-      -0.0000   -0.0000   -0.0000    0.0086   -0.0137   -0.0000    0.0000   -0.0000    0.0308
       21 O1     *d1-       0.0006    0.0032   -0.0011    0.0000   -0.0000   -0.0006   -0.0010   -0.0003   -0.0000
       22 O1     *d1-       0.0004    0.0091   -0.0029   -0.0000   -0.0000   -0.0006   -0.0023   -0.0001   -0.0000
       23 O1     *d1-       0.0001    0.0159   -0.0063    0.0000    0.0000   -0.0020   -0.0090   -0.0025    0.0000
       24 O1     *d0       -0.0002   -0.0014   -0.0015    0.0000    0.0000    0.0008   -0.0056   -0.0005    0.0000
       25 O1     *d0        0.0001   -0.0061   -0.0061   -0.0000    0.0000   -0.0043    0.0191    0.0047    0.0000
       26 O1     *d0        0.0000   -0.0061   -0.0088    0.0000   -0.0000    0.0474    0.1726    0.3298    0.0000
       27 O1     *d1+      -0.0000    0.0000   -0.0000    0.0011    0.0012    0.0000   -0.0000    0.0000    0.0017
       28 O1     *d1+      -0.0000   -0.0000   -0.0000    0.0043    0.0015    0.0000    0.0000   -0.0000   -0.0081
       29 O1     *d1+      -0.0000   -0.0000   -0.0000    0.0086    0.0136   -0.0000    0.0000    0.0000    0.0310
       30 O1     *d2+       0.0003    0.0025    0.0026   -0.0000    0.0000   -0.0013    0.0097    0.0009   -0.0000
       31 O1     *d2+      -0.0001    0.0107    0.0105    0.0000   -0.0000    0.0074   -0.0332   -0.0081   -0.0000
       32 O1     *d2+      -0.0000    0.0107    0.0152    0.0000    0.0000   -0.0821   -0.2990   -0.5712   -0.0000
       33 O1     *f3-       0.0000   -0.0000   -0.0000    0.0008   -0.0003    0.0000    0.0000   -0.0000   -0.0020
       34 O1     *f3-      -0.0000   -0.0000    0.0000    0.0025   -0.0038    0.0000    0.0000    0.0000    0.0067
       35 O1     *f2-       0.0000    0.0001    0.0002    0.0000    0.0000   -0.0001   -0.0002   -0.0001    0.0000
       36 O1     *f2-       0.0000    0.0007    0.0008   -0.0000   -0.0000   -0.0001    0.0001    0.0002   -0.0000
       37 O1     *f1-      -0.0000   -0.0000    0.0000    0.0000    0.0004    0.0000   -0.0000    0.0000    0.0007
       38 O1     *f1-       0.0000    0.0000   -0.0000    0.0002    0.0016    0.0000    0.0000   -0.0000   -0.0023
       39 O1     *f0       -0.0000    0.0000    0.0000   -0.0007    0.0000   -0.0000   -0.0000   -0.0000    0.0012
       40 O1     *f0       -0.0000    0.0000   -0.0000   -0.0021   -0.0021    0.0000   -0.0000   -0.0000   -0.0039
       41 O1     *f1+      -0.0000   -0.0007   -0.0013    0.0000    0.0000   -0.0015   -0.0003   -0.0015    0.0000
       42 O1     *f1+       0.0000   -0.0013   -0.0028   -0.0000   -0.0000    0.0103    0.0490    0.0515    0.0000
       43 O1     *f2+       0.0000   -0.0000   -0.0000    0.0005    0.0005    0.0000    0.0000   -0.0000   -0.0018
       44 O1     *f2+      -0.0000   -0.0000    0.0000    0.0014    0.0036   -0.0000    0.0000    0.0000    0.0059
       45 O1     *f3+       0.0000    0.0008    0.0016   -0.0000   -0.0000    0.0020    0.0004    0.0019   -0.0000
       46 O1     *f3+      -0.0000    0.0017    0.0036    0.0000    0.0000   -0.0133   -0.0633   -0.0665   -0.0000
       47 O1     *g4-       0.0000   -0.0000   -0.0000    0.0002   -0.0002    0.0000    0.0000   -0.0000   -0.0003
       48 O1     *g3-       0.0000    0.0001   -0.0000    0.0000   -0.0000    0.0000   -0.0000   -0.0000   -0.0000
       49 O1     *g2-      -0.0000   -0.0000   -0.0000   -0.0001    0.0001    0.0000    0.0000    0.0000    0.0001
       50 O1     *g1-      -0.0000   -0.0000    0.0000   -0.0000   -0.0000   -0.0000    0.0000    0.0000   -0.0000
       51 O1     *g0       -0.0000    0.0001    0.0002   -0.0000    0.0000   -0.0008   -0.0033   -0.0041   -0.0000
       52 O1     *g1+      -0.0000    0.0000    0.0000   -0.0002   -0.0001   -0.0000   -0.0000    0.0000    0.0002
       53 O1     *g2+       0.0000   -0.0002   -0.0003   -0.0000   -0.0000    0.0011    0.0049    0.0061    0.0000
       54 O1     *g3+       0.0000   -0.0000    0.0000    0.0001    0.0001   -0.0000    0.0000    0.0000   -0.0002
       55 O1     *g4+      -0.0000    0.0002    0.0004   -0.0000    0.0000   -0.0015   -0.0066   -0.0081   -0.0000
       56 H2     1s        -0.0003    0.4528    0.6732   -0.0000    0.0000   -0.0138    0.6060   -0.3722   -0.0000
       57 H2     *s         0.0006   -0.0136   -0.0114    0.0000   -0.0000    0.1130    0.0480    0.2834    0.0000
       58 H2     *s         0.0004   -0.1417   -0.1247    0.0000   -0.0000    0.3613    3.3603    4.4988    0.0000
       59 H2     *s        -0.0002   -0.1276   -0.1706    0.0000   -0.0000    1.7329   -1.1593    1.1283    0.0000
       60 H2     *px        0.0001   -0.0068   -0.0060    0.0000    0.0000   -0.0028    0.0541    0.0014    0.0000
       61 H2     *px       -0.0006   -0.0162   -0.0138    0.0000   -0.0000    0.0193   -0.4050   -0.2801   -0.0000
       62 H2     *px       -0.0001   -0.0119   -0.0038   -0.0000    0.0000   -0.2891   -0.2945   -2.3194   -0.0000
       63 H2     *py       -0.0000   -0.0000   -0.0000    0.0029   -0.0052    0.0000    0.0000   -0.0000    0.0135
       64 H2     *py       -0.0000    0.0000   -0.0000    0.0081   -0.0013   -0.0000   -0.0000    0.0000   -0.0486
       65 H2     *py        0.0000    0.0000    0.0000    0.0219   -0.0404    0.0000    0.0000   -0.0000    0.1368
       66 H2     *pz        0.0000   -0.0000   -0.0000    0.0030    0.0051    0.0000    0.0000   -0.0000    0.0135
       67 H2     *pz       -0.0000    0.0000   -0.0000    0.0082    0.0013    0.0000   -0.0000   -0.0000   -0.0489
       68 H2     *pz       -0.0000    0.0000    0.0000    0.0221    0.0402    0.0000    0.0000    0.0000    0.1376
       69 H2     *d2-      -0.0000    0.0000    0.0000   -0.0013    0.0019   -0.0000   -0.0000    0.0000   -0.0044
       70 H2     *d2-      -0.0000   -0.0000   -0.0000   -0.0040    0.0002    0.0000    0.0000   -0.0000    0.0192
       71 H2     *d1-       0.0000   -0.0001   -0.0000    0.0000   -0.0000    0.0001    0.0001   -0.0002   -0.0000
       72 H2     *d1-       0.0000    0.0007   -0.0002   -0.0000    0.0000   -0.0007   -0.0024    0.0010    0.0000
       73 H2     *d0       -0.0000   -0.0013   -0.0014    0.0000   -0.0000    0.0015   -0.0086   -0.0002   -0.0000
       74 H2     *d0       -0.0001   -0.0014   -0.0005   -0.0000    0.0000   -0.0065   -0.0830   -0.1510   -0.0000
       75 H2     *d1+      -0.0000    0.0000    0.0000   -0.0013   -0.0019   -0.0000    0.0000    0.0000   -0.0044
       76 H2     *d1+       0.0000   -0.0000   -0.0000   -0.0041   -0.0002   -0.0000    0.0000   -0.0000    0.0194
       77 H2     *d2+       0.0000    0.0023    0.0023    0.0000    0.0000   -0.0026    0.0149    0.0003    0.0000
       78 H2     *d2+       0.0002    0.0025    0.0009    0.0000   -0.0000    0.0112    0.1437    0.2615    0.0000
       79 H2     *f3-       0.0000    0.0000    0.0000    0.0010   -0.0018   -0.0000   -0.0000    0.0000    0.0065
       80 H2     *f2-      -0.0000   -0.0000    0.0000    0.0000    0.0000   -0.0000    0.0002    0.0000   -0.0000
       81 H2     *f1-       0.0000   -0.0000   -0.0000   -0.0002    0.0005    0.0000    0.0000    0.0000   -0.0018
       82 H2     *f0        0.0000   -0.0000   -0.0000   -0.0006   -0.0011   -0.0000    0.0000   -0.0000   -0.0041
       83 H2     *f1+       0.0000    0.0005    0.0003    0.0000    0.0000   -0.0037    0.0139    0.0155    0.0000
       84 H2     *f2+       0.0000    0.0000    0.0000    0.0008    0.0014   -0.0000   -0.0000    0.0000    0.0054
       85 H2     *f3+      -0.0001   -0.0007   -0.0004   -0.0000   -0.0000    0.0048   -0.0180   -0.0201   -0.0000
--


++    Molecular charges:
      ------------------

      Mulliken charges per centre and basis function type
      ---------------------------------------------------

                            O1                      H2    
                     alpha        beta       alpha        beta
      1s           0.9990      1.0015      0.5455      0.6121
      2s           0.9832      0.9432      0.0000      0.0000
      2px          0.7648      0.7205      0.0000      0.0000
      2pz          0.9745      0.4711      0.0000      0.0000
      2py          0.9746      0.4658      0.0000      0.0000
      *s          -0.0153     -0.0116     -0.2554     -0.2713
      *px         -0.0397     -0.0197      0.0101      0.0158
      *pz          0.0082      0.0201      0.0141      0.0098
      *py          0.0081      0.0199      0.0141      0.0097
      *d2+         0.0047      0.0051      0.0006      0.0010
      *d1+         0.0008      0.0003      0.0021      0.0013
      *d0          0.0016      0.0017      0.0002      0.0003
      *d1-         0.0004      0.0007      0.0000      0.0000
      *d2-         0.0008      0.0003      0.0021      0.0013
      *f3+         0.0001      0.0003      0.0001      0.0001
      *f2+         0.0001      0.0000      0.0002      0.0001
      *f1+         0.0001      0.0002      0.0000      0.0000
      *f0          0.0000      0.0000      0.0001      0.0001
      *f1-         0.0001     -0.0000      0.0000      0.0000
      *f2-         0.0000      0.0000      0.0000      0.0000
      *f3-         0.0000      0.0000      0.0002      0.0001
      *g4+         0.0000      0.0000      0.0000      0.0000
      *g3+         0.0000      0.0000      0.0000      0.0000
      *g2+         0.0000      0.0000      0.0000      0.0000
      *g1+         0.0000      0.0000      0.0000      0.0000
      *g0          0.0000      0.0000      0.0000      0.0000
      *g1-         0.0000      0.0000      0.0000      0.0000
      *g2-         0.0000      0.0000      0.0000      0.0000
      *g3-         0.0000      0.0000      0.0000      0.0000
      *g4-         0.0000      0.0000      0.0000      0.0000
      Total        4.6660      3.6195      0.3340      0.3805
      Total              8.2855                  0.7145

      Charge           -0.2855                  0.2855

      Total electronic charge=    9.000000

      Total            charge=   -0.000000
--


++    Molecular orbitals:
      -------------------

      Title: Natural orbitals

      Molecular orbitals for symmetry species 1: a  

          Orbital            1         2         3         4         5         6         7         8         9        10    
          Energy          -20.6059   -0.5341   -0.6547   -1.3012   -0.2414    1.2617    1.0633    1.1038    8.3327    0.2498
          Occ. No.          2.0000    1.9995    1.9991    1.9978    1.0000    0.0022    0.0009    0.0005    0.0000    0.0000

        1 O1     1s         1.0000   -0.0000    0.0134   -0.0193   -0.0000   -0.0401    0.0130    0.0000    1.6335   -0.0148
        2 O1     2s        -0.0221   -0.0000    0.3457   -0.9069   -0.0000   -0.5718    0.0787    0.0000    3.7682   -0.1280
        3 O1     *s         0.0002   -0.0000    0.0049    0.0045    0.0000   -0.0322    0.0009   -0.0000   -2.5006   -0.0388
        4 O1     *s        -0.0014    0.0000    0.0056    0.0115    0.0000   -0.1949    0.2908    0.0000   -0.5659    0.2776
        5 O1     *s        -0.0008   -0.0000    0.1203    0.0294    0.0000    0.3599   -0.2757   -0.0000   -0.9872   -1.2621
        6 O1     2px        0.0121    0.0000   -0.7668   -0.1508   -0.0000   -0.3826   -0.7855   -0.0000    0.1836    0.1343
        7 O1     *px       -0.0029   -0.0000    0.0008   -0.0032    0.0000   -0.0084   -0.0616   -0.0000   -0.2648    0.0376
        8 O1     *px       -0.0038    0.0000    0.0126   -0.0024    0.0000   -0.1183    0.1436   -0.0000    0.2634    0.0077
        9 O1     *px       -0.0015   -0.0000    0.0211    0.0209    0.0000   -0.1087    0.6601    0.0000    0.3118   -0.5117
       10 O1     2py        0.0000    0.6716    0.0000    0.0000   -0.6997   -0.0000   -0.0000   -0.5598    0.0000   -0.0000
       11 O1     *py        0.0000   -0.0020    0.0000   -0.0000   -0.0021    0.0000    0.0000   -0.0654    0.0000    0.0000
       12 O1     *py       -0.0000   -0.0029   -0.0000    0.0000   -0.0032   -0.0000    0.0000   -0.0069    0.0000   -0.0000
       13 O1     *py        0.0000    0.0344    0.0000    0.0000    0.0080    0.0000   -0.0000    0.7778   -0.0000    0.0000
       14 O1     2pz        0.0000    0.6754    0.0000    0.0000    0.6958   -0.0000   -0.0000   -0.5629    0.0000    0.0000
       15 O1     *pz       -0.0000   -0.0020   -0.0000    0.0000    0.0021    0.0000    0.0000   -0.0657   -0.0000   -0.0000
       16 O1     *pz        0.0000   -0.0029   -0.0000   -0.0000    0.0032   -0.0000    0.0000   -0.0069    0.0000    0.0000
       17 O1     *pz        0.0000    0.0346    0.0000    0.0000   -0.0080   -0.0000   -0.0000    0.7822   -0.0000    0.0000
       18 O1     *d2-       0.0000    0.0012    0.0000   -0.0000   -0.0013    0.0000    0.0000   -0.0045    0.0000    0.0000
       19 O1     *d2-      -0.0000    0.0046   -0.0000    0.0000   -0.0052   -0.0000   -0.0000   -0.0231    0.0000    0.0000
       20 O1     *d2-      -0.0000    0.0093    0.0000    0.0000   -0.0110    0.0000    0.0000   -0.0475   -0.0000   -0.0000
       21 O1     *d1-      -0.0001   -0.0000    0.0002   -0.0007    0.0000    0.0759   -0.0488    0.0000    0.7311   -0.0093
       22 O1     *d1-       0.0003    0.0000   -0.0004    0.0006   -0.0000    0.2884   -0.1713   -0.0000   -0.1589   -0.0246
       23 O1     *d1-      -0.0001    0.0000    0.0008   -0.0037    0.0000    0.3612   -0.2804   -0.0000   -0.2947   -0.0237
       24 O1     *d0       -0.0000    0.0000    0.0018    0.0007    0.0000   -0.0214    0.0152   -0.0000   -0.1999    0.0044
       25 O1     *d0        0.0001   -0.0000    0.0069    0.0038    0.0000   -0.0772    0.0518    0.0000    0.0668   -0.0040
       26 O1     *d0        0.0001   -0.0000    0.0099    0.0043   -0.0000   -0.0635    0.0591    0.0000   -0.0254    0.0261
       27 O1     *d1+      -0.0000    0.0012    0.0000    0.0000    0.0013    0.0000   -0.0000   -0.0045    0.0000    0.0000
       28 O1     *d1+       0.0000    0.0046    0.0000   -0.0000    0.0052   -0.0000    0.0000   -0.0232   -0.0000    0.0000
       29 O1     *d1+       0.0000    0.0094    0.0000    0.0000    0.0109   -0.0000   -0.0000   -0.0478    0.0000    0.0000
       30 O1     *d2+       0.0000   -0.0000   -0.0031   -0.0013   -0.0000    0.0380   -0.0268    0.0000    0.3544   -0.0078
       31 O1     *d2+      -0.0001    0.0000   -0.0120   -0.0065    0.0000    0.1370   -0.0916   -0.0000   -0.1176    0.0067
       32 O1     *d2+      -0.0001    0.0000   -0.0171   -0.0075    0.0000    0.1140   -0.1055   -0.0000    0.0407   -0.0455
       33 O1     *f3-       0.0000    0.0003    0.0000    0.0000    0.0002   -0.0000   -0.0000    0.0306   -0.0000   -0.0000
       34 O1     *f3-      -0.0000    0.0012   -0.0000    0.0000   -0.0003   -0.0000    0.0000    0.0854    0.0000   -0.0000
       35 O1     *f2-      -0.0000    0.0000    0.0007    0.0002   -0.0000    0.0087    0.0453    0.0000    0.0135   -0.0123
       36 O1     *f2-      -0.0000   -0.0000    0.0020    0.0003    0.0000    0.0306    0.1299    0.0000    0.0125   -0.0372
       37 O1     *f1-      -0.0000   -0.0009   -0.0000    0.0000   -0.0019   -0.0000   -0.0000    0.0570   -0.0000    0.0000
       38 O1     *f1-       0.0000   -0.0027   -0.0000   -0.0000   -0.0053   -0.0000   -0.0000    0.1833    0.0000   -0.0000
       39 O1     *f0       -0.0000    0.0003   -0.0000    0.0000   -0.0010    0.0000    0.0000   -0.0583    0.0000    0.0000
       40 O1     *f0       -0.0000    0.0007    0.0000    0.0000   -0.0036    0.0000    0.0000   -0.1772   -0.0000   -0.0000
       41 O1     *f1+      -0.0000    0.0000    0.0008    0.0005    0.0000   -0.0051   -0.0217   -0.0000    0.0083    0.0045
       42 O1     *f1+       0.0001   -0.0000    0.0016    0.0013    0.0000   -0.0038   -0.0551    0.0000   -0.0444    0.0141
       43 O1     *f2+       0.0000    0.0009   -0.0000   -0.0000   -0.0016   -0.0000   -0.0000   -0.0256   -0.0000    0.0000
       44 O1     *f2+       0.0000    0.0028    0.0000   -0.0000   -0.0040   -0.0000    0.0000   -0.0904    0.0000   -0.0000
       45 O1     *f3+       0.0000    0.0000   -0.0010   -0.0007   -0.0000    0.0066    0.0284    0.0000   -0.0106   -0.0060
       46 O1     *f3+      -0.0001    0.0000   -0.0020   -0.0016    0.0000    0.0052    0.0723    0.0000    0.0575   -0.0185
       47 O1     *g4-      -0.0000    0.0002    0.0000    0.0000   -0.0002   -0.0000    0.0000    0.0020    0.0000   -0.0000
       48 O1     *g3-       0.0000   -0.0000    0.0001    0.0000    0.0000    0.0022    0.0047    0.0000   -0.0005   -0.0015
       49 O1     *g2-       0.0000   -0.0001   -0.0000   -0.0000   -0.0001   -0.0000   -0.0000    0.0039   -0.0000    0.0000
       50 O1     *g1-      -0.0000   -0.0000   -0.0000   -0.0000    0.0000   -0.0008   -0.0018   -0.0000    0.0002    0.0006
       51 O1     *g0       -0.0000    0.0000   -0.0002   -0.0001   -0.0000    0.0011    0.0011   -0.0000   -0.0008   -0.0006
       52 O1     *g1+      -0.0000   -0.0001   -0.0000    0.0000   -0.0002    0.0000   -0.0000   -0.0032    0.0000    0.0000
       53 O1     *g2+       0.0000   -0.0000    0.0002    0.0002    0.0000    0.0007   -0.0035    0.0000   -0.0016    0.0008
       54 O1     *g3+       0.0000    0.0002    0.0000    0.0000    0.0000    0.0000    0.0000   -0.0029   -0.0000    0.0000
       55 O1     *g4+      -0.0000   -0.0000   -0.0003   -0.0002    0.0000    0.0005    0.0036    0.0000    0.0006   -0.0012
       56 H2     1s        -0.0030    0.0000   -0.6409   -0.4537    0.0000    0.7377    0.7146    0.0000   -0.3156   -0.5351
       57 H2     *s         0.0009   -0.0000    0.0136    0.0167   -0.0000    0.0803    0.1261    0.0000   -0.1266    0.0740
       58 H2     *s         0.0025   -0.0000    0.1101    0.1484   -0.0000    0.0639   -0.4255   -0.0000   -0.4458   -0.1612
       59 H2     *s         0.0008   -0.0000    0.1631    0.1287   -0.0000   -0.1590   -0.1221    0.0000    0.1010    2.2130
       60 H2     *px        0.0001   -0.0000    0.0058    0.0069    0.0000   -0.0024    0.0022   -0.0000    0.0137   -0.0181
       61 H2     *px       -0.0004   -0.0000    0.0144    0.0147    0.0000   -0.0592    0.0548    0.0000    0.0648    0.1131
       62 H2     *px       -0.0000   -0.0000    0.0109    0.0097    0.0000   -0.0699    0.3539    0.0000    0.2154   -0.4503
       63 H2     *py       -0.0000    0.0029    0.0000    0.0000   -0.0026   -0.0000    0.0000    0.0042    0.0000   -0.0000
       64 H2     *py        0.0000    0.0077   -0.0000   -0.0000   -0.0066   -0.0000   -0.0000    0.0271   -0.0000    0.0000
       65 H2     *py        0.0000    0.0202    0.0000   -0.0000   -0.0137   -0.0000    0.0000    0.1125    0.0000   -0.0000
       66 H2     *pz        0.0000    0.0029    0.0000   -0.0000    0.0026   -0.0000   -0.0000    0.0042    0.0000    0.0000
       67 H2     *pz       -0.0000    0.0078    0.0000    0.0000    0.0066    0.0000   -0.0000    0.0272   -0.0000   -0.0000
       68 H2     *pz        0.0000    0.0203    0.0000    0.0000    0.0136    0.0000    0.0000    0.1132    0.0000   -0.0000
       69 H2     *d2-      -0.0000   -0.0013    0.0000    0.0000    0.0013    0.0000    0.0000   -0.0002   -0.0000   -0.0000
       70 H2     *d2-      -0.0000   -0.0038   -0.0000    0.0000    0.0028   -0.0000    0.0000   -0.0167    0.0000   -0.0000
       71 H2     *d1-      -0.0000    0.0000   -0.0001    0.0001   -0.0000   -0.0004   -0.0038    0.0000    0.0020    0.0012
       72 H2     *d1-      -0.0000   -0.0000    0.0011   -0.0000    0.0000    0.0185    0.0385    0.0000   -0.0052   -0.0136
       73 H2     *d0        0.0000   -0.0000    0.0013    0.0014    0.0000   -0.0012   -0.0013    0.0000   -0.0136    0.0046
       74 H2     *d0       -0.0001    0.0000    0.0013    0.0011   -0.0000   -0.0097    0.0368   -0.0000   -0.0084   -0.0009
       75 H2     *d1+       0.0000   -0.0013   -0.0000   -0.0000   -0.0013   -0.0000    0.0000   -0.0002    0.0000    0.0000
       76 H2     *d1+       0.0000   -0.0038    0.0000   -0.0000   -0.0028   -0.0000    0.0000   -0.0168    0.0000    0.0000
       77 H2     *d2+      -0.0000    0.0000   -0.0022   -0.0024    0.0000    0.0021    0.0023    0.0000    0.0237   -0.0079
       78 H2     *d2+       0.0001    0.0000   -0.0022   -0.0020   -0.0000    0.0170   -0.0634   -0.0000    0.0146    0.0014
       79 H2     *f3-      -0.0000    0.0009    0.0000   -0.0000   -0.0008    0.0000    0.0000    0.0032   -0.0000   -0.0000
       80 H2     *f2-       0.0000   -0.0000   -0.0001   -0.0001   -0.0000   -0.0033   -0.0046    0.0000   -0.0065    0.0016
       81 H2     *f1-       0.0000   -0.0003    0.0000    0.0000    0.0001   -0.0000    0.0000    0.0036    0.0000   -0.0000
       82 H2     *f0        0.0000   -0.0006    0.0000   -0.0000   -0.0006   -0.0000   -0.0000   -0.0047    0.0000   -0.0000
       83 H2     *f1+       0.0000   -0.0000   -0.0004   -0.0005    0.0000   -0.0001   -0.0036    0.0000    0.0410   -0.0057
       84 H2     *f2+      -0.0000    0.0008   -0.0000    0.0000    0.0006    0.0000   -0.0000   -0.0009   -0.0000   -0.0000
       85 H2     *f3+      -0.0000   -0.0000    0.0005    0.0007    0.0000    0.0002    0.0046    0.0000   -0.0529    0.0074

          Orbital           11        12        13        14        15        16        17        18        19        20    
          Energy            0.8461    0.5704    1.6928    0.6613    0.6701    3.0792    1.1221    1.6247    1.2227    1.5714
          Occ. No.          0.0000    0.0000    0.0000    0.0000    0.0000    0.0000    0.0000    0.0000    0.0000    0.0000

        1 O1     1s         0.3527   -0.0000   -0.0140   -0.0000    0.0000    0.0000    0.1916   -0.1069    0.0000   -0.3558
        2 O1     2s         0.8466   -0.0000   -0.1015   -0.0000    0.0000    0.0000    0.8368   -0.2429    0.0000   -1.0277
        3 O1     *s        -0.2712   -0.0000    0.1847   -0.0000    0.0000    0.0000   -0.5360   -0.1272    0.0000   -0.0685
        4 O1     *s        -0.8207    0.0000   -0.6156    0.0000   -0.0000   -0.0000    1.3437    1.8782   -0.0000    2.2789
        5 O1     *s        -4.5432    0.0000   -3.7229    0.0000   -0.0000    0.0000   -6.1469    4.7324   -0.0000    6.7092
        6 O1     2px        0.2294    0.0000   -0.3072    0.0000   -0.0000    0.0000   -0.1075    0.2060   -0.0000    0.1354
        7 O1     *px        0.0083   -0.0000   -0.1085   -0.0000    0.0000    0.0000    0.1332   -0.1657    0.0000   -0.0153
        8 O1     *px       -0.9548    0.0000   -0.4284    0.0000   -0.0000    0.0000   -1.0487    1.9916   -0.0000    2.3861
        9 O1     *px       -3.1966    0.0000   -1.7855    0.0000   -0.0000    0.0000   -1.7676    1.2668   -0.0000    2.8981
       10 O1     2py       -0.0000    0.4806    0.0000    0.0107    0.0148   -0.0005   -0.0000   -0.0000    0.0000   -0.0000
       11 O1     *py        0.0000   -0.0935   -0.0000   -0.0021    0.0097    0.3864   -0.0000    0.0000    0.0000   -0.0000
       12 O1     *py        0.0000    0.3095    0.0000   -0.0505   -0.0725   -0.7590   -0.0000   -0.0000   -0.0000    0.0000
       13 O1     *py        0.0000   -0.9787    0.0000   -0.7393   -0.7297    0.6508    0.0000   -0.0000   -0.0000    0.0000
       14 O1     2pz        0.0000   -0.4779   -0.0000   -0.0107    0.0149   -0.0005   -0.0000    0.0000    0.0000   -0.0000
       15 O1     *pz       -0.0000    0.0930    0.0000    0.0021    0.0098    0.3886   -0.0000    0.0000    0.0000   -0.0000
       16 O1     *pz        0.0000   -0.3078    0.0000    0.0502   -0.0729   -0.7633   -0.0000   -0.0000   -0.0000    0.0000
       17 O1     *pz        0.0000    0.9732    0.0000    0.7351   -0.7338    0.6545    0.0000   -0.0000    0.0000    0.0000
       18 O1     *d2-       0.0000   -0.0016    0.0000    0.0042    0.0043    0.0133    0.0000   -0.0000    0.0000    0.0000
       19 O1     *d2-       0.0000    0.0088    0.0000    0.0170    0.0178    0.0291   -0.0000   -0.0000    0.0000   -0.0000
       20 O1     *d2-       0.0000   -0.0397    0.0000   -0.1263   -0.1313    0.1925    0.0000   -0.0000   -0.0000    0.0000
       21 O1     *d1-       0.0937    0.0000   -0.0270    0.0000   -0.0000    0.0000    0.1390   -0.0074   -0.0003   -0.1195
       22 O1     *d1-      -0.1942   -0.0000   -0.0013   -0.0000    0.0000   -0.0000    0.0528    0.1133    0.0006    0.2574
       23 O1     *d1-      -0.2449    0.0000   -0.1272    0.0000   -0.0000    0.0000    0.1347    0.0795   -0.0057   -0.5394
       24 O1     *d0       -0.0316    0.0000    0.0149    0.0000   -0.0000    0.0000   -0.0438    0.0214    0.0447    0.0246
       25 O1     *d0        0.0738   -0.0000    0.0023   -0.0000    0.0000    0.0000    0.0060   -0.1045   -0.0915   -0.1578
       26 O1     *d0        0.3698   -0.0000    0.3190   -0.0000    0.0000    0.0000    0.2367    0.1050    0.8847   -0.8533
       27 O1     *d1+       0.0000    0.0016    0.0000   -0.0042    0.0043    0.0134   -0.0000   -0.0000    0.0000    0.0000
       28 O1     *d1+      -0.0000   -0.0087   -0.0000   -0.0169    0.0179    0.0293    0.0000    0.0000    0.0000   -0.0000
       29 O1     *d1+       0.0000    0.0395    0.0000    0.1256   -0.1320    0.1935    0.0000   -0.0000   -0.0000    0.0000
[...]
       62 H2     *px        0.0000   -0.0000    0.0000    0.0000    0.0000    0.0000   -0.0000   -0.5934   -0.0973    0.0000
       63 H2     *py       -1.0070   -0.0084    0.2082    0.0313    0.2599   -0.0210   -0.0775    0.0000    0.0000    0.0598
       64 H2     *py        1.7415    0.0280   -1.1362   -0.3411   -0.7001    0.4163    0.2505   -0.0000   -0.0000    0.0112
       65 H2     *py        0.1812    0.0102   -0.2197   -0.1767   -0.4896    0.4273    0.2670   -0.0000   -0.0000    0.0053
       66 H2     *pz       -1.0127   -0.0084    0.2094   -0.0311    0.2614   -0.0211   -0.0779    0.0000   -0.0000   -0.0595
       67 H2     *pz        1.7514    0.0282   -1.1426    0.3392   -0.7040    0.4187    0.2519   -0.0000    0.0000   -0.0111
       68 H2     *pz        0.1822    0.0103   -0.2209    0.1757   -0.4923    0.4297    0.2685   -0.0000    0.0000   -0.0053
       69 H2     *d2-      -0.2043   -0.0108    0.4724   -0.0624   -0.7128   -0.0559    0.0103   -0.0000   -0.0000   -0.0490
       70 H2     *d2-      -0.9613   -0.0262    0.8035    0.2801    1.1536   -0.3498   -0.2357    0.0000    0.0000    0.0158
       71 H2     *d1-       0.0000   -0.0000    0.0000    0.0000   -0.0000   -0.0000    0.0000   -0.0045   -1.1993    0.0000
       72 H2     *d1-      -0.0000    0.0000   -0.0000    0.0000   -0.0000    0.0000   -0.0000    0.2029    0.7342    0.0000
       73 H2     *d0        0.0000   -0.0000   -0.0000   -0.0000    0.0000    0.0000   -0.0000   -0.0574   -0.0017   -0.0000
       74 H2     *d0       -0.0000   -0.0000    0.0000    0.0000    0.0000    0.0000   -0.0000   -0.4069   -0.0444   -0.0000
       75 H2     *d1+      -0.2055   -0.0109    0.4750    0.0621   -0.7168   -0.0562    0.0104    0.0000    0.0000    0.0487
       76 H2     *d1+      -0.9667   -0.0263    0.8080   -0.2786    1.1601   -0.3517   -0.2371    0.0000   -0.0000   -0.0157
       77 H2     *d2+      -0.0000    0.0000    0.0000    0.0000   -0.0000   -0.0000    0.0000    0.0956   -0.0094    0.0000
       78 H2     *d2+       0.0000    0.0000   -0.0000   -0.0000   -0.0000   -0.0000    0.0000    0.7084    0.0848    0.0000
       79 H2     *f3-       0.6965    0.0483   -0.6012    0.1205   -0.4753    0.0970    0.1845   -0.0000   -0.0000   -0.1065
       80 H2     *f2-      -0.0000    0.0000    0.0000   -0.0000   -0.0000    0.0000   -0.0000   -0.0835   -0.2907   -0.0000
       81 H2     *f1-      -0.1813    0.1445    0.1554   -0.0320    0.1215    0.0016   -0.0414    0.0000    0.0000    0.0293
       82 H2     *f0       -0.4421   -0.1247    0.3823    0.0753    0.3030   -0.0776   -0.1210    0.0000   -0.0000   -0.0658
       83 H2     *f1+      -0.0000    0.0000    0.0000   -0.0000   -0.0000    0.0000   -0.0000    0.1433    0.0045   -0.0000
       84 H2     *f2+       0.5730   -0.0830   -0.4938   -0.0985   -0.3893    0.0588    0.1466   -0.0000    0.0000    0.0879
       85 H2     *f3+       0.0000   -0.0000   -0.0000    0.0000    0.0000   -0.0000    0.0000   -0.1862   -0.0084    0.0000

          Orbital           71        72        73        74        75        76        77        78        79        80    
          Energy            9.3166    6.0572    8.6677   11.2355    6.7165    7.3264   11.4644    8.0548    9.4546   14.0902
          Occ. No.          0.0000    0.0000    0.0000    0.0000    0.0000    0.0000    0.0000    0.0000    0.0000    0.0000

        1 O1     1s         0.0018    0.0000   -0.0000   -0.0000   -0.0000    0.0000   -0.0000    0.0000   -0.0000   -0.0000
        2 O1     2s         0.0122    0.0000   -0.0000   -0.0000    0.0000    0.0000   -0.0000    0.0000   -0.0000   -0.0000
        3 O1     *s         0.0087    0.0000   -0.0000   -0.0000    0.0000    0.0000   -0.0000    0.0000   -0.0000   -0.0000
        4 O1     *s        -0.0152   -0.0000    0.0000    0.0000   -0.0000   -0.0000    0.0000   -0.0000   -0.0000    0.0000
        5 O1     *s         0.0151   -0.0000    0.0000    0.0000    0.0000   -0.0000   -0.0000   -0.0000    0.0000    0.0000
        6 O1     2px        0.0041    0.0000   -0.0000   -0.0000   -0.0000    0.0000    0.0000   -0.0000   -0.0000    0.0000
        7 O1     *px        0.0008    0.0000   -0.0000    0.0000   -0.0000    0.0000    0.0000    0.0000   -0.0000   -0.0000
        8 O1     *px       -0.0026   -0.0000    0.0000   -0.0000    0.0000   -0.0000   -0.0000    0.0000    0.0000   -0.0000
        9 O1     *px        0.0049   -0.0000    0.0000    0.0000    0.0000   -0.0000   -0.0000   -0.0000    0.0000    0.0000
       10 O1     2py        0.0000   -0.0028   -0.7974    0.7259   -0.0000   -0.5117   -0.1389   -0.1518   -0.0355    0.5116
       11 O1     *py       -0.0000    0.0014    0.5331   -0.3479    0.0000    0.2665    0.0883    0.0491    0.0227   -0.2219
       12 O1     *py        0.0000   -0.0000   -0.8824   -0.8367   -0.0000   -0.4157    0.0478    0.8955   -0.0056   -1.1876
       13 O1     *py       -0.0000    0.0010    0.2043   -0.2863    0.0000    0.0204    0.0401    0.1963    0.0099   -0.1336
       14 O1     2pz        0.0000    0.0028    0.7929   -0.7218   -0.0000    0.5088    0.1381    0.1509    0.0353   -0.5087
       15 O1     *pz       -0.0000   -0.0014   -0.5301    0.3460    0.0000   -0.2650   -0.0878   -0.0488   -0.0226    0.2207
       16 O1     *pz        0.0000    0.0000    0.8775    0.8320   -0.0000    0.4134   -0.0476   -0.8905    0.0056    1.1809
       17 O1     *pz       -0.0000   -0.0010   -0.2032    0.2847    0.0000   -0.0203   -0.0399   -0.1952   -0.0099    0.1328
       18 O1     *d2-      -0.0000    0.0002   -0.0291   -0.4263   -0.0000    0.0147    0.0138   -0.0338   -0.0037    0.9083
       19 O1     *d2-       0.0000    0.0002   -0.5762    0.0562    0.0000   -0.4637   -0.0016    0.2571   -0.0109   -1.2627
       20 O1     *d2-       0.0000    0.0006   -0.7474   -0.6351   -0.0000   -0.3059    0.0061    0.6555   -0.0112   -0.4059
       21 O1     *d1-       0.0031   -0.0000    0.0000    0.0000    0.0001   -0.0000   -0.0000   -0.0000    0.0000   -0.0000
       22 O1     *d1-       0.0001    0.0000   -0.0000   -0.0000    0.0011    0.0000   -0.0000    0.0000   -0.0000    0.0000
       23 O1     *d1-       0.0048   -0.0000    0.0000    0.0000    0.0009   -0.0000   -0.0000   -0.0000    0.0000    0.0000
       24 O1     *d0        0.0003    0.0000    0.0000    0.0000   -0.0123   -0.0000    0.0000   -0.0000    0.0000    0.0000
       25 O1     *d0        0.0023   -0.0000    0.0000    0.0000   -0.1714   -0.0000    0.0000   -0.0000    0.0000    0.0000
       26 O1     *d0       -0.0000    0.0000   -0.0000   -0.0000   -0.1404    0.0000    0.0000    0.0000   -0.0000   -0.0000
       27 O1     *d1+       0.0000   -0.0002    0.0289    0.4239    0.0000   -0.0146   -0.0137    0.0336    0.0036   -0.9032
       28 O1     *d1+      -0.0000   -0.0002    0.5730   -0.0559   -0.0000    0.4611    0.0016   -0.2556    0.0109    1.2556
       29 O1     *d1+       0.0000   -0.0006    0.7432    0.6315   -0.0000    0.3042   -0.0061   -0.6519    0.0111    0.4036
       30 O1     *d2+      -0.0004   -0.0000   -0.0000   -0.0000   -0.0071    0.0000   -0.0000    0.0000   -0.0000   -0.0000
       31 O1     *d2+      -0.0043    0.0000   -0.0000   -0.0000   -0.0990    0.0000   -0.0000    0.0000   -0.0000   -0.0000
       32 O1     *d2+       0.0003   -0.0000    0.0000    0.0000   -0.0810   -0.0000   -0.0000   -0.0000    0.0000    0.0000
       33 O1     *f3-       0.0000   -0.0006    0.0768    0.1010    0.0000    0.0617   -0.1907    0.0776    0.0077   -0.1489
       34 O1     *f3-       0.0000    0.0339   -0.7036   -0.5902   -0.0000   -0.3594    0.0909    0.2789   -0.0111   -0.6685
       35 O1     *f2-       0.0005   -0.0000    0.0000    0.0000   -0.0003    0.0000    0.0000   -0.0000   -0.0000    0.0000
       36 O1     *f2-       0.0025    0.0000    0.0000   -0.0000    0.0030   -0.0000   -0.0000    0.0000    0.0000    0.0000
       37 O1     *f1-      -0.0000   -0.0022   -0.0200   -0.0458   -0.0000   -0.0164   -0.7859   -0.0205    0.0206    0.0380
       38 O1     *f1-       0.0000    0.1252    0.1815    0.1609    0.0000    0.0925    0.3427   -0.0720    0.0138    0.1727
       39 O1     *f0        0.0000   -0.0019    0.0481    0.0511   -0.0000    0.0385   -0.6430    0.0485    0.0189   -0.0939
       40 O1     *f0       -0.0000    0.1053   -0.4426   -0.3659    0.0000   -0.2262    0.2865    0.1754   -0.0002   -0.4203
       41 O1     *f1+      -0.0001   -0.0000    0.0000   -0.0000    0.0430   -0.0000   -0.0000    0.0000   -0.0000    0.0000
       42 O1     *f1+       0.0016    0.0000   -0.0000    0.0000   -0.4282    0.0000    0.0000   -0.0000   -0.0000   -0.0000
       43 O1     *f2+      -0.0000   -0.0014   -0.0625   -0.0978    0.0000   -0.0504   -0.5129   -0.0633    0.0118    0.1205
       44 O1     *f2+       0.0000    0.0796    0.5711    0.4860   -0.0000    0.2916    0.2189   -0.2265    0.0177    0.5428
       45 O1     *f3+       0.0002    0.0000   -0.0000    0.0000    0.0333    0.0000    0.0000   -0.0000    0.0000   -0.0000
       46 O1     *f3+      -0.0020   -0.0000    0.0000   -0.0000   -0.3317   -0.0000   -0.0000    0.0000    0.0000    0.0000
       47 O1     *g4-       0.0000   -0.0216   -0.0008   -0.6601    0.0000    0.0140    0.0186    0.2799    0.2447   -0.4894
       48 O1     *g3-       0.0140   -0.0000    0.0000   -0.0000    0.0005   -0.0000   -0.0000   -0.0000    0.0000    0.0000
       49 O1     *g2-      -0.0000   -0.0580   -0.0086    0.2440   -0.0000   -0.0080    0.0172   -0.1109    0.6595    0.1848
       50 O1     *g1-       0.0067    0.0000   -0.0000    0.0000    0.0037    0.0000    0.0000    0.0000   -0.0000   -0.0000
       51 O1     *g0       -0.7391   -0.0000    0.0000   -0.0000   -0.0827   -0.0000   -0.0000   -0.0000    0.0000   -0.0000
       52 O1     *g1+       0.0000   -0.0414   -0.0039   -0.5283   -0.0000    0.0102    0.0237    0.2212    0.4700   -0.3902
       53 O1     *g2+      -0.6618    0.0000   -0.0000    0.0000    0.0740    0.0000    0.0000    0.0000   -0.0000    0.0000
       54 O1     *g3+      -0.0000   -0.0474   -0.0079    0.4589   -0.0000   -0.0124    0.0098   -0.2017    0.5394    0.3439
       55 O1     *g4+      -0.1243   -0.0000    0.0000   -0.0000    0.0978   -0.0000   -0.0000   -0.0000    0.0000   -0.0000
       56 H2     1s         0.0032   -0.0000    0.0000   -0.0000    0.0000   -0.0000   -0.0000   -0.0000    0.0000   -0.0000
       57 H2     *s         0.0075    0.0000    0.0000    0.0000   -0.0000    0.0000    0.0000   -0.0000   -0.0000    0.0000
       58 H2     *s        -0.0210    0.0000   -0.0000   -0.0000   -0.0000    0.0000    0.0000    0.0000   -0.0000   -0.0000
       59 H2     *s        -0.0036    0.0000   -0.0000   -0.0000   -0.0000    0.0000    0.0000    0.0000   -0.0000   -0.0000
       60 H2     *px        0.0001   -0.0000   -0.0000   -0.0000    0.0000   -0.0000   -0.0000    0.0000   -0.0000   -0.0000
       61 H2     *px       -0.0048    0.0000   -0.0000   -0.0000   -0.0000    0.0000   -0.0000    0.0000    0.0000   -0.0000
       62 H2     *px        0.0134   -0.0000    0.0000    0.0000    0.0000   -0.0000   -0.0000   -0.0000    0.0000    0.0000
       63 H2     *py        0.0000    0.0020   -1.0200   -0.0069    0.0000    0.7033    0.0004    0.2429   -0.0077   -0.2099
       64 H2     *py       -0.0000   -0.0014    1.7602    0.6939   -0.0000   -0.2608   -0.0080   -0.6846    0.0230    1.1399
       65 H2     *py       -0.0000    0.0007    0.1902    0.2517    0.0000    0.5946   -0.0017   -0.4920    0.0033    0.2130
       66 H2     *pz        0.0000   -0.0020    1.0143    0.0068    0.0000   -0.6994   -0.0004   -0.2415    0.0076    0.2087
       67 H2     *pz       -0.0000    0.0014   -1.7504   -0.6900   -0.0000    0.2593    0.0079    0.6807   -0.0229   -1.1335
       68 H2     *pz       -0.0000   -0.0007   -0.1891   -0.2503    0.0000   -0.5913    0.0016    0.4892   -0.0033   -0.2118
       69 H2     *d2-      -0.0000   -0.0002   -0.1945   -0.5078   -0.0000   -0.0368    0.0126   -0.7155   -0.0114   -0.4787
       70 H2     *d2-       0.0000   -0.0005   -0.9874   -0.3468   -0.0000   -0.6222    0.0019    1.1469   -0.0106   -0.7934
       71 H2     *d1-      -0.0054    0.0000    0.0000    0.0000   -0.0007    0.0000    0.0000    0.0000    0.0000   -0.0000
       72 H2     *d1-      -0.0007    0.0000    0.0000    0.0000   -0.0013   -0.0000   -0.0000    0.0000    0.0000    0.0000
       73 H2     *d0        0.0001   -0.0000    0.0000   -0.0000    0.1051   -0.0000   -0.0000   -0.0000    0.0000   -0.0000
       74 H2     *d0        0.0034    0.0000   -0.0000    0.0000    0.2076   -0.0000   -0.0000    0.0000    0.0000   -0.0000
       75 H2     *d1+       0.0000    0.0002    0.1934    0.5050   -0.0000    0.0365   -0.0126    0.7115    0.0114    0.4760
       76 H2     *d1+       0.0000    0.0005    0.9818    0.3448   -0.0000    0.6187   -0.0018   -1.1405    0.0106    0.7890
       77 H2     *d2+      -0.0004    0.0000   -0.0000    0.0000    0.0607    0.0000    0.0000    0.0000   -0.0000    0.0000
       78 H2     *d2+      -0.0057   -0.0000    0.0000   -0.0000    0.1199    0.0000    0.0000   -0.0000   -0.0000    0.0000
       79 H2     *f3-      -0.0000   -0.1730    0.7008    0.2801    0.0000    0.6488   -0.0204   -0.4774   -0.0288    0.6063
       80 H2     *f2-       0.0086   -0.0000   -0.0000   -0.0000    0.0059    0.0000   -0.0000    0.0000   -0.0000    0.0000
       81 H2     *f1-       0.0000   -0.6739   -0.1793   -0.0722   -0.0000   -0.1653   -0.0311    0.1247   -0.1472   -0.1565
       82 H2     *f0        0.0000   -0.5588    0.4417    0.1763   -0.0000    0.4095   -0.0356   -0.2994   -0.1149    0.3813
       83 H2     *f1+      -0.0012   -0.0000   -0.0000   -0.0000   -0.8334    0.0000   -0.0000    0.0000   -0.0000    0.0000
       84 H2     *f2+      -0.0000   -0.4341   -0.5677   -0.2273   -0.0000   -0.5250   -0.0125    0.3887   -0.1003   -0.4923
       85 H2     *f3+       0.0016    0.0000    0.0000    0.0000   -0.6455   -0.0000    0.0000   -0.0000    0.0000   -0.0000

          Orbital           81        82    
          Energy            9.3169   10.4246
          Occ. No.          0.0000    0.0000

        1 O1     1s        -0.0000    0.0000
        2 O1     2s        -0.0000    0.0000
        3 O1     *s        -0.0000    0.0000
        4 O1     *s         0.0000   -0.0000
        5 O1     *s        -0.0000    0.0000
        6 O1     2px       -0.0000    0.0000
        7 O1     *px        0.0000   -0.0000
        8 O1     *px       -0.0000    0.0000
        9 O1     *px       -0.0000    0.0000
       10 O1     2py       -0.0000   -0.0000
       11 O1     *py        0.0000    0.0000
       12 O1     *py        0.0000    0.0000
       13 O1     *py        0.0000    0.0000
       14 O1     2pz       -0.0000   -0.0000
       15 O1     *pz        0.0000    0.0000
       16 O1     *pz        0.0000    0.0000
       17 O1     *pz        0.0000    0.0000
       18 O1     *d2-      -0.0000   -0.0000
       19 O1     *d2-       0.0000    0.0000
       20 O1     *d2-      -0.0000   -0.0000
       21 O1     *d1-       0.0000    0.0006
       22 O1     *d1-       0.0000   -0.0000
       23 O1     *d1-       0.0000    0.0010
       24 O1     *d0       -0.0025   -0.0885
       25 O1     *d0       -0.0076    0.0062
       26 O1     *d0       -0.0002   -0.1579
       27 O1     *d1+      -0.0000   -0.0000
       28 O1     *d1+      -0.0000    0.0000
       29 O1     *d1+       0.0000   -0.0000
       30 O1     *d2+      -0.0014   -0.0511
       31 O1     *d2+      -0.0044    0.0036
       32 O1     *d2+      -0.0001   -0.0912
       33 O1     *f3-       0.0000   -0.0000
       34 O1     *f3-      -0.0000    0.0000
       35 O1     *f2-       0.0000    0.0009
       36 O1     *f2-       0.0000    0.0016
       37 O1     *f1-       0.0000    0.0000
       38 O1     *f1-      -0.0000    0.0000
       39 O1     *f0        0.0000    0.0000
       40 O1     *f0        0.0000   -0.0000
       41 O1     *f1+      -0.0002   -0.1278
       42 O1     *f1+      -0.0040   -0.2200
       43 O1     *f2+       0.0000   -0.0000
       44 O1     *f2+       0.0000    0.0000
       45 O1     *f3+      -0.0002   -0.0990
       46 O1     *f3+      -0.0031   -0.1704
       47 O1     *g4-      -0.0000   -0.0000
       48 O1     *g3-      -0.3534    0.0093
       49 O1     *g2-      -0.0000    0.0000
       50 O1     *g1-      -0.9353    0.0079
       51 O1     *g0       -0.0024    0.5904
       52 O1     *g1+       0.0000    0.0000
       53 O1     *g2+      -0.0127   -0.5279
       54 O1     *g3+       0.0000   -0.0000
       55 O1     *g4+      -0.0084   -0.6984
       56 H2     1s        -0.0000    0.0000
       57 H2     *s         0.0000   -0.0000
       58 H2     *s         0.0000   -0.0000
       59 H2     *s         0.0000   -0.0000
       60 H2     *px       -0.0000    0.0000
       61 H2     *px       -0.0000    0.0000
       62 H2     *px       -0.0000    0.0000
       63 H2     *py       -0.0000    0.0000
       64 H2     *py        0.0000    0.0000
       65 H2     *py       -0.0000    0.0000
       66 H2     *pz        0.0000    0.0000
       67 H2     *pz       -0.0000    0.0000
       68 H2     *pz       -0.0000    0.0000
       69 H2     *d2-      -0.0000   -0.0000
       70 H2     *d2-      -0.0000    0.0000
       71 H2     *d1-      -0.0000   -0.0015
       72 H2     *d1-      -0.0000   -0.0011
       73 H2     *d0        0.0046    0.2314
       74 H2     *d0        0.0015    0.1622
       75 H2     *d1+      -0.0000   -0.0000
       76 H2     *d1+       0.0000    0.0000
       77 H2     *d2+       0.0027    0.1336
       78 H2     *d2+       0.0008    0.0937
       79 H2     *f3-       0.0000   -0.0000
       80 H2     *f2-       0.0000    0.0032
       81 H2     *f1-       0.0000    0.0000
       82 H2     *f0       -0.0000    0.0000
       83 H2     *f1+      -0.0069   -0.4553
       84 H2     *f2+       0.0000   -0.0000
       85 H2     *f3+      -0.0054   -0.3527
--


++    Molecular properties:
      ---------------------

      Charge (e):
                      =   -0.0000
      Dipole Moment (Debye):
      Origin of the operator (Ang)=    0.0000    0.0000    0.0000
                   X=  1.7976E+00               Y=  1.0525E-14               Z= -2.0099E-14           Total=  1.7976E+00
      Quadrupole Moment (Debye*Ang):
      Origin of the operator (Ang)=    0.0593    0.0000    0.0000
                  XX= -4.2350E+00              XY=  5.0699E-15              XZ=  1.3272E-14              YY= -6.0178E+00
                  YZ= -6.3481E-01              ZZ= -6.0249E+00
      In traceless form (Debye*Ang)
                  XX=  1.7864E+00              XY=  7.6049E-15              XZ=  1.9909E-14              YY= -8.8783E-01
                  YZ= -9.5222E-01              ZZ= -8.9855E-01
--


      Input file to MOLDEN was generated!

 ###############################################################################
 ###############################################################################
 ###                                                                         ###
 ###                                                                         ###
 ###    WARNING: RunFile label nBas                                          ###
 ###    was used       62 times                                              ###
 ###                                                                         ###
 ###                                                                         ###
 ###############################################################################
 ###############################################################################
--- Stop Module: scf at Tue May  7 13:12:05 2024 /rc=_RC_ALL_IS_WELL_ ---
*** files: 0507.scf.molden 0507.UhfOrb 0507.UnaOrb xmldump
    saved to directory /home/kenya/molcas_test/0507
--- Module scf spent 5 seconds ---

.##################.
.# Happy landing! #.
.##################.

    Timing: Wall=10.99 User=9.59 System=1.34
