[Molden Format]
[N_Atoms]
                   13
[Atoms] (AU)
C1          1      6          -1.93916136      2.14413995      0.00000000
C2          2      6           0.69332162      2.24654421      0.00000000
C3          3      6           2.03633108     -0.02014448      0.00000000
H4          4      1           1.67142496      4.04412729      0.00000000
N5          5      7          -3.13237223     -0.12929506      0.00000000
H6          6      1          -3.03425765      3.87097169      0.00000000
N7          7      7           0.77465543     -2.25678653      0.00000000
H8          8      1           4.08114703     -0.00156847      0.00000000
C9          9      6          -1.79493746     -2.32500564      0.00000000
C10        10      6          -3.13796582     -4.80801128      0.00000000
H11        11      1          -5.21821413     -4.52647988      0.00000000
H12        12      1          -2.60540320     -5.90146351      1.70944625
H13        13      1          -2.60540320     -5.90146351     -1.70944625
[Charge] (Mulliken)
  0.10746592931809218     
 -0.30773441014965197     
  0.10728478144834597     
  0.21173594312757738     
 -0.57864295205645000     
  0.22233045043441479     
 -0.57307468888095148     
  0.22240033395717274     
  0.52056606822662044     
 -0.52169933018521242     
  0.20120798400402606     
  0.19407994537790629     
  0.19407994537791251     
[GTO] (AU)
   1
   s   6
  3.047524880E+03  1.834737132E-03
  4.573695180E+02  1.403732281E-02
  1.039486850E+02  6.884262227E-02
  2.921015530E+01  2.321844432E-01
  9.286662960E+00  4.679413484E-01
  3.163926960E+00  3.623119853E-01
   s   3
  7.868272350E+00 -1.193324198E-01
  1.881288540E+00 -1.608541517E-01
  5.442492580E-01  1.143456438E+00
   s   1
  1.687144782E-01  1.000000000E+00
   p   3
  7.868272350E+00  6.899906659E-02
  1.881288540E+00  3.164239610E-01
  5.442492580E-01  7.443082909E-01
   p   1
  1.687144782E-01  1.000000000E+00
   d   1
  8.000000000E-01  1.000000000E+00
 
   2
   s   6
  3.047524880E+03  1.834737132E-03
  4.573695180E+02  1.403732281E-02
  1.039486850E+02  6.884262227E-02
  2.921015530E+01  2.321844432E-01
  9.286662960E+00  4.679413484E-01
  3.163926960E+00  3.623119853E-01
   s   3
  7.868272350E+00 -1.193324198E-01
  1.881288540E+00 -1.608541517E-01
  5.442492580E-01  1.143456438E+00
   s   1
  1.687144782E-01  1.000000000E+00
   p   3
  7.868272350E+00  6.899906659E-02
  1.881288540E+00  3.164239610E-01
  5.442492580E-01  7.443082909E-01
   p   1
  1.687144782E-01  1.000000000E+00
   d   1
  8.000000000E-01  1.000000000E+00
 
   3
   s   6
  3.047524880E+03  1.834737132E-03
  4.573695180E+02  1.403732281E-02
  1.039486850E+02  6.884262227E-02
  2.921015530E+01  2.321844432E-01
  9.286662960E+00  4.679413484E-01
  3.163926960E+00  3.623119853E-01
   s   3
  7.868272350E+00 -1.193324198E-01
  1.881288540E+00 -1.608541517E-01
  5.442492580E-01  1.143456438E+00
   s   1
  1.687144782E-01  1.000000000E+00
   p   3
  7.868272350E+00  6.899906659E-02
  1.881288540E+00  3.164239610E-01
  5.442492580E-01  7.443082909E-01
   p   1
  1.687144782E-01  1.000000000E+00
   d   1
  8.000000000E-01  1.000000000E+00
 
   4
   s   3
  1.873113696E+01  3.349460434E-02
  2.825394365E+00  2.347269535E-01
  6.401216923E-01  8.137573261E-01
   s   1
  1.612777588E-01  1.000000000E+00
 
   5
   s   6
  4.173511460E+03  1.834772160E-03
  6.274579110E+02  1.399462700E-02
  1.429020930E+02  6.858655181E-02
  4.023432930E+01  2.322408730E-01
  1.282021290E+01  4.690699481E-01
  4.390437010E+00  3.604551991E-01
   s   3
  1.162636186E+01 -1.149611817E-01
  2.716279807E+00 -1.691174786E-01
  7.722183966E-01  1.145851947E+00
   s   1
  2.120314975E-01  1.000000000E+00
   p   3
  1.162636186E+01  6.757974388E-02
  2.716279807E+00  3.239072959E-01
  7.722183966E-01  7.408951398E-01
   p   1
  2.120314975E-01  1.000000000E+00
   d   1
  8.000000000E-01  1.000000000E+00
 
   6
   s   3
  1.873113696E+01  3.349460434E-02
  2.825394365E+00  2.347269535E-01
  6.401216923E-01  8.137573261E-01
   s   1
  1.612777588E-01  1.000000000E+00
 
   7
   s   6
  4.173511460E+03  1.834772160E-03
  6.274579110E+02  1.399462700E-02
  1.429020930E+02  6.858655181E-02
  4.023432930E+01  2.322408730E-01
  1.282021290E+01  4.690699481E-01
  4.390437010E+00  3.604551991E-01
   s   3
  1.162636186E+01 -1.149611817E-01
  2.716279807E+00 -1.691174786E-01
  7.722183966E-01  1.145851947E+00
   s   1
  2.120314975E-01  1.000000000E+00
   p   3
  1.162636186E+01  6.757974388E-02
  2.716279807E+00  3.239072959E-01
  7.722183966E-01  7.408951398E-01
   p   1
  2.120314975E-01  1.000000000E+00
   d   1
  8.000000000E-01  1.000000000E+00
 
   8
   s   3
  1.873113696E+01  3.349460434E-02
  2.825394365E+00  2.347269535E-01
  6.401216923E-01  8.137573261E-01
   s   1
  1.612777588E-01  1.000000000E+00
 
   9
   s   6
  3.047524880E+03  1.834737132E-03
  4.573695180E+02  1.403732281E-02
  1.039486850E+02  6.884262227E-02
  2.921015530E+01  2.321844432E-01
  9.286662960E+00  4.679413484E-01
  3.163926960E+00  3.623119853E-01
   s   3
  7.868272350E+00 -1.193324198E-01
  1.881288540E+00 -1.608541517E-01
  5.442492580E-01  1.143456438E+00
   s   1
  1.687144782E-01  1.000000000E+00
   p   3
  7.868272350E+00  6.899906659E-02
  1.881288540E+00  3.164239610E-01
  5.442492580E-01  7.443082909E-01
   p   1
  1.687144782E-01  1.000000000E+00
   d   1
  8.000000000E-01  1.000000000E+00
 
  10
   s   6
  3.047524880E+03  1.834737132E-03
  4.573695180E+02  1.403732281E-02
  1.039486850E+02  6.884262227E-02
  2.921015530E+01  2.321844432E-01
  9.286662960E+00  4.679413484E-01
  3.163926960E+00  3.623119853E-01
   s   3
  7.868272350E+00 -1.193324198E-01
  1.881288540E+00 -1.608541517E-01
  5.442492580E-01  1.143456438E+00
   s   1
  1.687144782E-01  1.000000000E+00
   p   3
  7.868272350E+00  6.899906659E-02
  1.881288540E+00  3.164239610E-01
  5.442492580E-01  7.443082909E-01
   p   1
  1.687144782E-01  1.000000000E+00
   d   1
  8.000000000E-01  1.000000000E+00
 
  11
   s   3
  1.873113696E+01  3.349460434E-02
  2.825394365E+00  2.347269535E-01
  6.401216923E-01  8.137573261E-01
   s   1
  1.612777588E-01  1.000000000E+00
 
  12
   s   3
  1.873113696E+01  3.349460434E-02
  2.825394365E+00  2.347269535E-01
  6.401216923E-01  8.137573261E-01
   s   1
  1.612777588E-01  1.000000000E+00
 
  13
   s   3
  1.873113696E+01  3.349460434E-02
  2.825394365E+00  2.347269535E-01
  6.401216923E-01  8.137573261E-01
   s   1
  1.612777588E-01  1.000000000E+00
 
[MO]
Sym=     1a  
Ene=   -15.5690
Spin= Alpha
Occup=    2.00000
   1         0.00000873
   2         0.00028117
   3         0.00322496
   4        -0.00005965
   5        -0.00007384
   6         0.00000000
   7         0.00104678
   8        -0.00182674
   9         0.00000000
  10        -0.00016733
  11        -0.00038255
  12        -0.00008685
  13        -0.00022993
  14         0.00000000
  15        -0.00000000
  16         0.00002402
  17         0.00008644
  18        -0.00215199
  19         0.00008588
  20        -0.00000286
  21         0.00000000
  22         0.00076223
  23         0.00108037
  24        -0.00000000
  25         0.00000587
  26         0.00004164
  27         0.00001474
  28        -0.00003626
  29         0.00000000
  30        -0.00000000
  31        -0.00000121
  32        -0.00001403
  33         0.00112678
  34         0.00000401
  35         0.00000678
  36        -0.00000000
  37        -0.00052592
  38        -0.00000340
  39         0.00000000
  40        -0.00000264
  41         0.00002236
  42        -0.00000985
  43        -0.00000405
  44         0.00000000
  45        -0.00000000
  46        -0.00003891
  47        -0.00029812
  48         0.99419057
  49         0.02485491
  50        -0.00587490
  51         0.00188812
  52         0.00008842
  53         0.00000000
  54        -0.00265958
  55         0.00026141
  56        -0.00000000
  57        -0.00287308
  58        -0.00270403
  59        -0.00316081
  60         0.00000975
  61         0.00000000
  62         0.00000000
  63         0.00004448
  64         0.00050984
  65        -0.04514261
  66        -0.00108474
  67        -0.00080132
  68         0.00011066
  69        -0.00008363
  70         0.00000000
  71        -0.00005501
  72        -0.00056984
  73        -0.00000000
  74         0.00018663
  75         0.00018717
  76         0.00013693
  77         0.00005512
  78         0.00000000
  79        -0.00000000
  80         0.00000242
  81         0.00008675
  82         0.00002959
  83         0.00033877
  84         0.00243050
  85        -0.00005578
  86         0.00009080
  87        -0.00000000
  88        -0.00035631
  89         0.00213670
  90         0.00000000
  91        -0.00016627
  92        -0.00028250
  93        -0.00004497
  94         0.00020787
  95         0.00000000
  96         0.00000000
  97        -0.00000484
  98        -0.00002107
  99         0.00062640
 100         0.00000942
 101         0.00000287
 102         0.00000000
 103         0.00040881
 104        -0.00008130
 105         0.00000000
 106         0.00004311
 107        -0.00008177
 108        -0.00000306
 109         0.00004208
 110         0.00000000
 111        -0.00000000
 112         0.00003336
 113         0.00001923
 114        -0.00001405
 115        -0.00011174
 116        -0.00001405
 117        -0.00011174
Sym=     2a  
Ene=   -15.5690
Spin= Alpha
Occup=    2.00000
   1        -0.00000031
   2         0.00000908
   3         0.00149963
   4        -0.00000344
   5        -0.00000351
   6         0.00000000
   7         0.00035557
   8        -0.00065768
   9        -0.00000000
  10         0.00000620
  11        -0.00002819
  12        -0.00001888
  13        -0.00000633
  14        -0.00000000
  15        -0.00000000
  16         0.00002698
  17         0.00009926
  18        -0.00238466
  19        -0.00004166
  20         0.00006964
  21         0.00000000
  22         0.00057239
  23         0.00137257
  24        -0.00000000
  25         0.00005958
  26        -0.00000930
  27         0.00001741
  28         0.00000112
  29        -0.00000000
  30         0.00000000
  31         0.00000848
  32         0.00027502
  33         0.00339447
  34        -0.00003165
  35        -0.00009364
  36        -0.00000000
  37        -0.00219081
  38        -0.00011937
  39         0.00000000
  40        -0.00013564
  41        -0.00040444
  42        -0.00008881
  43        -0.00020517
  44         0.00000000
  45        -0.00000000
  46        -0.00004571
  47        -0.00033939
  48         0.04518503
  49         0.00116598
  50        -0.00126269
  51         0.00004357
  52         0.00006162
  53         0.00000000
  54        -0.00069283
  55        -0.00045210
  56        -0.00000000
  57        -0.00012516
  58        -0.00001804
  59        -0.00015723
  60         0.00001604
  61        -0.00000000
  62        -0.00000000
  63         0.00000501
  64         0.00013709
  65         0.99419049
  66         0.02487071
  67        -0.00602330
  68        -0.00094968
  69         0.00162319
  70         0.00000000
  71         0.00165998
  72        -0.00216515
  73         0.00000000
  74        -0.00275646
  75        -0.00282115
  76        -0.00316398
  77         0.00009341
  78        -0.00000000
  79         0.00000000
  80         0.00004511
  81         0.00052906
  82         0.00003500
  83         0.00038330
  84         0.00252597
  85         0.00009732
  86         0.00000521
  87        -0.00000000
  88         0.00206793
  89         0.00100184
  90         0.00000000
  91        -0.00043026
  92        -0.00006182
  93        -0.00004215
  94         0.00004789
  95         0.00000000
  96        -0.00000000
  97        -0.00000401
  98        -0.00002270
  99         0.00068705
 100         0.00000326
 101         0.00000997
 102        -0.00000000
 103        -0.00031422
 104         0.00033464
 105         0.00000000
 106        -0.00003834
 107         0.00004542
 108        -0.00003931
 109        -0.00006491
 110        -0.00000000
 111         0.00000000
 112        -0.00004544
 113        -0.00018584
 114         0.00001969
 115        -0.00000710
 116         0.00001969
 117        -0.00000710
Sym=     3a  
Ene=   -11.3230
Spin= Alpha
Occup=    2.00000
   1        -0.00025429
   2        -0.00034705
   3         0.00383748
   4        -0.00005708
   5        -0.00006356
   6         0.00000000
   7         0.00192036
   8        -0.00247493
   9        -0.00000000
  10         0.00011266
  11         0.00022596
  12        -0.00008246
  13         0.00003995
  14        -0.00000000
  15         0.00000000
  16        -0.00005121
  17         0.00035229
  18        -0.00509558
  19         0.00000527
  20         0.00001182
  21         0.00000000
  22         0.00160321
  23         0.00299743
  24         0.00000000
  25        -0.00003900
  26        -0.00002620
  27         0.00010520
  28         0.00001345
  29        -0.00000000
  30        -0.00000000
  31        -0.00025947
  32        -0.00035154
  33         0.00385205
  34        -0.00002248
  35        -0.00008368
  36         0.00000000
  37        -0.00315948
  38         0.00032373
  39        -0.00000000
  40         0.00016206
  41         0.00017524
  42        -0.00008324
  43         0.00007516
  44         0.00000000
  45        -0.00000000
  46        -0.00010519
  47        -0.00094029
  48        -0.00021842
  49         0.00053051
  50        -0.00231789
  51         0.00004092
  52        -0.00000507
  53        -0.00000000
  54        -0.00181717
  55        -0.00030393
  56         0.00000000
  57        -0.00022295
  58        -0.00035938
  59         0.00030337
  60         0.00013780
  61         0.00000000
  62        -0.00000000
  63         0.00012564
  64         0.00096589
  65        -0.00020989
  66         0.00056411
  67        -0.00268552
  68        -0.00003014
  69         0.00003103
  70        -0.00000000
  71         0.00091644
  72        -0.00164414
  73         0.00000000
  74        -0.00042128
  75        -0.00013054
  76         0.00032152
  77        -0.00001979
  78        -0.00000000
  79        -0.00000000
  80         0.00012827
  81         0.00098179
  82         0.99578806
  83         0.02628677
  84        -0.00708889
  85         0.00022635
  86         0.00039189
  87        -0.00000000
  88         0.00148604
  89         0.00216635
  90        -0.00000000
  91        -0.00108353
  92        -0.00120619
  93        -0.00221507
  94        -0.00011301
  95         0.00000000
  96         0.00000000
  97         0.00366433
  98         0.00023691
  99         0.00301904
 100        -0.00002939
 101        -0.00015635
 102         0.00000000
 103         0.00048521
 104         0.00161666
 105        -0.00000000
 106        -0.00023239
 107        -0.00046325
 108        -0.00008158
 109        -0.00021915
 110         0.00000000
 111         0.00000000
 112        -0.00008655
 113        -0.00009804
 114        -0.00012535
 115         0.00037533
 116        -0.00012535
 117         0.00037533
Sym=     4a  
Ene=   -11.2980
Spin= Alpha
Occup=    2.00000
   1         0.00929428
   2         0.00009292
   3         0.00105799
   4         0.00000961
   5        -0.00005111
   6         0.00000000
   7         0.00081147
   8        -0.00021037
   9         0.00000000
  10         0.00015506
  11         0.00003827
  12        -0.00003568
  13        -0.00004714
  14         0.00000000
  15         0.00000000
  16         0.01092996
  17         0.00028392
  18         0.00290328
  19        -0.00009043
  20         0.00013380
  21         0.00000000
  22         0.00195070
  23        -0.00089892
  24        -0.00000000
  25        -0.00039743
  26        -0.00037526
  27        -0.00008273
  28         0.00009691
  29         0.00000000
  30        -0.00000000
  31         0.99560577
  32         0.02694447
  33        -0.00929186
  34        -0.00042560
  35        -0.00038060
  36        -0.00000000
  37         0.00000603
  38        -0.00202737
  39         0.00000000
  40        -0.00160079
  41        -0.00126894
  42        -0.00238979
  43         0.00012622
  44         0.00000000
  45        -0.00000000
  46        -0.00013484
  47        -0.00036040
  48         0.00006209
  49         0.00023964
  50        -0.00248661
  51        -0.00001374
  52         0.00000413
  53         0.00000000
  54        -0.00097420
  55         0.00060286
  56        -0.00000000
  57         0.00006470
  58         0.00008877
  59         0.00013484
  60         0.00006039
  61        -0.00000000
  62        -0.00000000
  63        -0.00001057
  64         0.00025643
  65        -0.00026270
  66         0.00036788
  67        -0.00083683
  68         0.00006180
  69         0.00004439
  70         0.00000000
  71        -0.00041297
  72        -0.00142713
  73        -0.00000000
  74        -0.00031331
  75        -0.00044517
  76         0.00020497
  77        -0.00021490
  78         0.00000000
  79         0.00000000
  80        -0.00017540
  81         0.00193557
  82         0.00022854
  83        -0.00021910
  84         0.00094047
  85        -0.00003877
  86        -0.00008345
  87        -0.00000000
  88         0.00049451
  89         0.00292436
  90         0.00000000
  91         0.00021704
  92         0.00011471
  93        -0.00004962
  94         0.00002206
  95        -0.00000000
  96         0.00000000
  97         0.00002357
  98        -0.00005031
  99         0.00164284
 100         0.00009828
 101         0.00005201
 102         0.00000000
 103         0.00022617
 104         0.00057274
 105        -0.00000000
 106         0.00002560
 107        -0.00001624
 108         0.00000103
 109         0.00001250
 110         0.00000000
 111         0.00000000
 112        -0.00005196
 113        -0.00013053
 114        -0.00001186
 115        -0.00000750
 116        -0.00001186
 117        -0.00000750
Sym=     5a  
Ene=   -11.2970
Spin= Alpha
Occup=    2.00000
   1         0.99560453
   2         0.02696033
   3        -0.00928570
   4        -0.00009382
   5        -0.00056922
   6         0.00000000
   7        -0.00176475
   8        -0.00111127
   9         0.00000000
  10        -0.00147087
  11        -0.00140341
  12        -0.00239152
  13         0.00023012
  14        -0.00000000
  15        -0.00000000
  16         0.01087680
  17         0.00028318
  18         0.00284905
  19         0.00016310
  20        -0.00000693
  21        -0.00000000
  22        -0.00187867
  23         0.00118632
  24        -0.00000000
  25        -0.00044998
  26        -0.00030810
  27        -0.00008039
  28         0.00005013
  29        -0.00000000
  30        -0.00000000
  31        -0.00942618
  32        -0.00041264
  33         0.00122033
  34        -0.00004077
  35        -0.00001148
  36        -0.00000000
  37        -0.00061785
  38         0.00064710
  39         0.00000000
  40         0.00014003
  41         0.00010488
  42         0.00001042
  43        -0.00008460
  44         0.00000000
  45         0.00000000
  46        -0.00013270
  47        -0.00035513
  48        -0.00026711
  49         0.00035123
  50        -0.00064412
  51         0.00000648
  52         0.00008081
  53         0.00000000
  54        -0.00095633
  55        -0.00126748
  56        -0.00000000
  57        -0.00024840
  58        -0.00052487
  59         0.00019559
  60        -0.00016316
  61        -0.00000000
  62        -0.00000000
  63        -0.00017755
  64         0.00192376
  65         0.00007125
  66         0.00024942
  67        -0.00265769
  68         0.00000743
  69        -0.00001268
  70         0.00000000
  71         0.00115372
  72        -0.00042750
  73        -0.00000000
  74         0.00004166
  75         0.00013951
  76         0.00014065
  77         0.00004156
  78         0.00000000
  79         0.00000000
  80        -0.00000648
  81         0.00022108
  82         0.00022108
  83        -0.00021011
  84         0.00085913
  85        -0.00004959
  86        -0.00007775
  87         0.00000000
  88         0.00247206
  89         0.00187655
  90         0.00000000
  91         0.00012795
  92         0.00019936
  93        -0.00004733
  94        -0.00004258
  95         0.00000000
  96        -0.00000000
  97         0.00000934
  98        -0.00008687
  99         0.00186817
 100         0.00001440
 101         0.00010145
 102         0.00000000
 103         0.00014562
 104         0.00061409
 105        -0.00000000
 106        -0.00004341
 107         0.00001071
 108         0.00000280
 109        -0.00001610
 110        -0.00000000
 111        -0.00000000
 112        -0.00000482
 113        -0.00020940
 114        -0.00005319
 115        -0.00004600
 116        -0.00005319
 117        -0.00004600
Sym=     6a  
Ene=   -11.2440
Spin= Alpha
Occup=    2.00000
   1        -0.01147311
   2        -0.00048042
   3         0.00631653
   4        -0.00017184
   5         0.00000919
   6         0.00000000
   7         0.00225750
   8        -0.00147202
   9        -0.00000000
  10        -0.00046357
  11        -0.00024412
  12        -0.00009217
  13        -0.00005922
  14         0.00000000
  15         0.00000000
  16         0.99551767
  17         0.02810527
  18        -0.01526179
  19        -0.00015511
  20        -0.00029587
  21         0.00000000
  22         0.00159057
  23         0.00293877
  24        -0.00000000
  25        -0.00162945
  26        -0.00177665
  27        -0.00238287
  28        -0.00013257
  29        -0.00000000
  30         0.00000000
  31        -0.01132114
  32        -0.00047456
  33         0.00630377
  34         0.00010150
  35        -0.00013974
  36        -0.00000000
  37        -0.00245588
  38         0.00111409
  39        -0.00000000
  40        -0.00026308
  41        -0.00044913
  42        -0.00009299
  43         0.00009213
  44         0.00000000
  45        -0.00000000
  46        -0.00025346
  47         0.00117695
  48         0.00007229
  49         0.00017650
  50        -0.00260083
  51         0.00002630
  52         0.00001526
  53        -0.00000000
  54        -0.00096143
  55        -0.00026427
  56         0.00000000
  57         0.00017928
  58         0.00018918
  59         0.00011614
  60         0.00004826
  61         0.00000000
  62        -0.00000000
  63        -0.00002033
  64         0.00032247
  65         0.00007318
  66         0.00018004
  67        -0.00264525
  68        -0.00000213
  69         0.00002900
  70         0.00000000
  71         0.00033624
  72        -0.00092972
  73        -0.00000000
  74         0.00014789
  75         0.00022346
  76         0.00011795
  77         0.00002469
  78         0.00000000
  79         0.00000000
  80        -0.00002045
  81         0.00032183
  82         0.00012354
  83         0.00001350
  84         0.00098659
  85        -0.00000194
  86        -0.00000290
  87        -0.00000000
  88         0.00059061
  89         0.00098846
  90        -0.00000000
  91         0.00003461
  92         0.00004726
  93        -0.00000568
  94         0.00001309
  95        -0.00000000
  96         0.00000000
  97        -0.00000017
  98        -0.00002531
  99         0.00059835
 100         0.00001096
 101         0.00001418
 102        -0.00000000
 103         0.00005860
 104         0.00017534
 105         0.00000000
 106        -0.00000665
 107        -0.00001287
 108        -0.00000937
 109        -0.00000657
 110         0.00000000
 111         0.00000000
 112        -0.00001093
 113        -0.00005947
 114        -0.00000731
 115        -0.00002578
 116        -0.00000731
 117        -0.00002578
Sym=     7a  
Ene=   -11.2350
Spin= Alpha
Occup=    2.00000
   1        -0.00003852
   2        -0.00005632
   3         0.00027785
   4        -0.00000255
   5         0.00000319
   6         0.00000000
   7         0.00002936
   8        -0.00016957
   9         0.00000000
  10        -0.00000385
  11         0.00001036
  12        -0.00002325
  13         0.00000512
  14         0.00000000
  15        -0.00000000
  16        -0.00001143
  17        -0.00002556
  18         0.00005730
  19        -0.00000188
  20         0.00001599
  21        -0.00000000
  22         0.00013342
  23        -0.00002521
  24        -0.00000000
  25        -0.00000036
  26        -0.00000083
  27        -0.00001813
  28         0.00000270
  29        -0.00000000
  30        -0.00000000
  31        -0.00003996
  32        -0.00005766
  33         0.00063347
  34        -0.00001049
  35        -0.00003907
  36         0.00000000
  37        -0.00025996
  38        -0.00048884
  39         0.00000000
  40         0.00001731
  41         0.00003905
  42        -0.00002578
  43         0.00002534
  44        -0.00000000
  45        -0.00000000
  46        -0.00001387
  47         0.00001861
  48        -0.00001156
  49        -0.00012994
  50         0.00004384
  51         0.00001553
  52         0.00006238
  53        -0.00000000
  54         0.00030202
  55        -0.00009398
  56        -0.00000000
  57         0.00003737
  58         0.00000903
  59        -0.00011256
  60        -0.00006341
  61        -0.00000000
  62        -0.00000000
  63        -0.00000629
  64         0.00006198
  65        -0.00002704
  66        -0.00019382
  67         0.00080017
  68         0.00006484
  69         0.00009911
  70        -0.00000000
  71        -0.00105354
  72        -0.00040620
  73        -0.00000000
  74         0.00009110
  75        -0.00008332
  76        -0.00014918
  77        -0.00003198
  78         0.00000000
  79         0.00000000
  80        -0.00001629
  81         0.00006604
  82        -0.00397878
  83         0.00006488
  84         0.00313995
  85         0.00002044
  86         0.00003501
  87         0.00000000
  88        -0.00217274
  89        -0.00219496
  90        -0.00000000
  91        -0.00036664
  92        -0.00049533
  93        -0.00012817
  94        -0.00016746
  95         0.00000000
  96         0.00000000
  97         0.99575149
  98         0.02848421
  99        -0.01575697
 100         0.00021932
 101         0.00025176
 102         0.00000000
 103        -0.00056414
 104        -0.00117565
 105         0.00000000
 106        -0.00179812
 107        -0.00182611
 108        -0.00180524
 109         0.00002827
 110         0.00000000
 111        -0.00000000
 112         0.00019571
 113         0.00242574
 114         0.00016686
 115         0.00249427
 116         0.00016686
 117         0.00249427
Sym=     8a  
Ene=    -1.2883
Spin= Alpha
Occup=    2.00000
   1        -0.06721962
   2         0.13137604
   3         0.01760834
   4        -0.00201849
   5        -0.06884561
   6         0.00000000
   7        -0.01008006
   8         0.02466099
   9         0.00000000
  10         0.00081768
  11         0.01098626
  12        -0.00721397
  13         0.00492358
  14         0.00000000
  15         0.00000000
  16        -0.04529338
  17         0.08184577
  18         0.08550462
  19        -0.01946335
  20        -0.03586404
  21        -0.00000000
  22        -0.01755283
  23        -0.03177576
  24        -0.00000000
  25         0.00468421
  26         0.00346865
  27        -0.00459972
  28        -0.00109866
  29         0.00000000
  30         0.00000000
  31        -0.06727718
  32         0.13148360
  33         0.01727237
  34        -0.05671037
  35        -0.03896157
  36        -0.00000000
  37         0.02629998
  38         0.00561068
  39        -0.00000000
  40         0.00408771
  41         0.00765034
  42        -0.00720311
  43         0.00734583
  44         0.00000000
  45        -0.00000000
  46         0.01314506
  47         0.00843776
  48        -0.11384290
  49         0.22922438
  50         0.25601635
  51         0.08181501
  52        -0.01165821
  53         0.00000000
  54         0.05433175
  55        -0.00148028
  56         0.00000000
  57         0.00321521
  58         0.00743345
  59        -0.00966225
  60        -0.00225115
  61         0.00000000
  62         0.00000000
  63         0.01911764
  64        -0.00777615
  65        -0.11394883
  66         0.22952706
  67         0.25500084
  68        -0.05449351
  69         0.06225421
  70         0.00000000
  71        -0.02955676
  72         0.04570972
  73        -0.00000000
  74         0.00799932
  75         0.00277520
  76        -0.00961060
  77         0.00131119
  78        -0.00000000
  79         0.00000000
  80         0.01915554
  81        -0.00777183
  82        -0.10768431
  83         0.21290333
  84         0.04425594
  85         0.03742691
  86         0.06806883
  87         0.00000000
  88        -0.01073888
  89        -0.02277531
  90        -0.00000000
  91         0.01128949
  92         0.00625038
  93        -0.01240915
  94        -0.00446269
  95        -0.00000000
  96        -0.00000000
  97        -0.02301831
  98         0.04303413
  99         0.02020345
 100         0.01407248
 101         0.02603927
 102         0.00000000
 103         0.00010744
 104         0.00092085
 105         0.00000000
 106         0.00092641
 107         0.00505540
 108        -0.00033274
 109         0.00360744
 110         0.00000000
 111         0.00000000
 112         0.00893899
 113        -0.00008290
 114         0.00872927
 115         0.00018171
 116         0.00872927
 117         0.00018171
Sym=     9a  
Ene=    -1.1644
Spin= Alpha
Occup=    2.00000
   1         0.08315056
   2        -0.16301346
   3        -0.08525541
   4         0.04353627
   5         0.08128509
   6        -0.00000000
   7        -0.00075695
   8        -0.01379266
   9         0.00000000
  10         0.00068022
  11        -0.01490990
  12         0.00891700
  13        -0.00894926
  14         0.00000000
  15         0.00000000
  16         0.00012628
  17        -0.00025692
  18        -0.00011355
  19         0.05335747
  20        -0.02893366