[Molden Format]
[N_Atoms]
                   13
[Atoms] (AU)
C1          1      6          -1.93916136      2.14413995      0.00000000
C2          2      6           0.69332162      2.24654421      0.00000000
C3          3      6           2.03633108     -0.02014448      0.00000000
H4          4      1           1.67142496      4.04412729      0.00000000
N5          5      7          -3.13237223     -0.12929506      0.00000000
H6          6      1          -3.03425765      3.87097169      0.00000000
N7          7      7           0.77465543     -2.25678653      0.00000000
H8          8      1           4.08114703     -0.00156847      0.00000000
C9          9      6          -1.79493746     -2.32500564      0.00000000
C10        10      6          -3.13796582     -4.80801128      0.00000000
H11        11      1          -5.21821413     -4.52647988      0.00000000
H12        12      1          -2.60540320     -5.90146351      1.70944625
H13        13      1          -2.60540320     -5.90146351     -1.70944625
[Charge] (Mulliken)
  0.10746685474783213     
 -0.30773565829465443     
  0.10728582672950537     
  0.21173608835228319     
 -0.57864366150549973     
  0.22233023523635809     
 -0.57307482402704224     
  0.22240009470828115     
  0.52056661389478798     
 -0.52170056889546501     
  0.20120832266448896     
  0.19408033819335024     
  0.19408033819341752     
[GTO] (AU)
   1
   s   6
  3.047524880E+03  1.834737132E-03
  4.573695180E+02  1.403732281E-02
  1.039486850E+02  6.884262227E-02
  2.921015530E+01  2.321844432E-01
  9.286662960E+00  4.679413484E-01
  3.163926960E+00  3.623119853E-01
   s   3
  7.868272350E+00 -1.193324198E-01
  1.881288540E+00 -1.608541517E-01
  5.442492580E-01  1.143456438E+00
   s   1
  1.687144782E-01  1.000000000E+00
   p   3
  7.868272350E+00  6.899906659E-02
  1.881288540E+00  3.164239610E-01
  5.442492580E-01  7.443082909E-01
   p   1
  1.687144782E-01  1.000000000E+00
   d   1
  8.000000000E-01  1.000000000E+00
 
   2
   s   6
  3.047524880E+03  1.834737132E-03
  4.573695180E+02  1.403732281E-02
  1.039486850E+02  6.884262227E-02
  2.921015530E+01  2.321844432E-01
  9.286662960E+00  4.679413484E-01
  3.163926960E+00  3.623119853E-01
   s   3
  7.868272350E+00 -1.193324198E-01
  1.881288540E+00 -1.608541517E-01
  5.442492580E-01  1.143456438E+00
   s   1
  1.687144782E-01  1.000000000E+00
   p   3
  7.868272350E+00  6.899906659E-02
  1.881288540E+00  3.164239610E-01
  5.442492580E-01  7.443082909E-01
   p   1
  1.687144782E-01  1.000000000E+00
   d   1
  8.000000000E-01  1.000000000E+00
 
   3
   s   6
  3.047524880E+03  1.834737132E-03
  4.573695180E+02  1.403732281E-02
  1.039486850E+02  6.884262227E-02
  2.921015530E+01  2.321844432E-01
  9.286662960E+00  4.679413484E-01
  3.163926960E+00  3.623119853E-01
   s   3
  7.868272350E+00 -1.193324198E-01
  1.881288540E+00 -1.608541517E-01
  5.442492580E-01  1.143456438E+00
   s   1
  1.687144782E-01  1.000000000E+00
   p   3
  7.868272350E+00  6.899906659E-02
  1.881288540E+00  3.164239610E-01
  5.442492580E-01  7.443082909E-01
   p   1
  1.687144782E-01  1.000000000E+00
   d   1
  8.000000000E-01  1.000000000E+00
 
   4
   s   3
  1.873113696E+01  3.349460434E-02
  2.825394365E+00  2.347269535E-01
  6.401216923E-01  8.137573261E-01
   s   1
  1.612777588E-01  1.000000000E+00
 
   5
   s   6
  4.173511460E+03  1.834772160E-03
  6.274579110E+02  1.399462700E-02
  1.429020930E+02  6.858655181E-02
  4.023432930E+01  2.322408730E-01
  1.282021290E+01  4.690699481E-01
  4.390437010E+00  3.604551991E-01
   s   3
  1.162636186E+01 -1.149611817E-01
  2.716279807E+00 -1.691174786E-01
  7.722183966E-01  1.145851947E+00
   s   1
  2.120314975E-01  1.000000000E+00
   p   3
  1.162636186E+01  6.757974388E-02
  2.716279807E+00  3.239072959E-01
  7.722183966E-01  7.408951398E-01
   p   1
  2.120314975E-01  1.000000000E+00
   d   1
  8.000000000E-01  1.000000000E+00
 
   6
   s   3
  1.873113696E+01  3.349460434E-02
  2.825394365E+00  2.347269535E-01
  6.401216923E-01  8.137573261E-01
   s   1
  1.612777588E-01  1.000000000E+00
 
   7
   s   6
  4.173511460E+03  1.834772160E-03
  6.274579110E+02  1.399462700E-02
  1.429020930E+02  6.858655181E-02
  4.023432930E+01  2.322408730E-01
  1.282021290E+01  4.690699481E-01
  4.390437010E+00  3.604551991E-01
   s   3
  1.162636186E+01 -1.149611817E-01
  2.716279807E+00 -1.691174786E-01
  7.722183966E-01  1.145851947E+00
   s   1
  2.120314975E-01  1.000000000E+00
   p   3
  1.162636186E+01  6.757974388E-02
  2.716279807E+00  3.239072959E-01
  7.722183966E-01  7.408951398E-01
   p   1
  2.120314975E-01  1.000000000E+00
   d   1
  8.000000000E-01  1.000000000E+00
 
   8
   s   3
  1.873113696E+01  3.349460434E-02
  2.825394365E+00  2.347269535E-01
  6.401216923E-01  8.137573261E-01
   s   1
  1.612777588E-01  1.000000000E+00
 
   9
   s   6
  3.047524880E+03  1.834737132E-03
  4.573695180E+02  1.403732281E-02
  1.039486850E+02  6.884262227E-02
  2.921015530E+01  2.321844432E-01
  9.286662960E+00  4.679413484E-01
  3.163926960E+00  3.623119853E-01
   s   3
  7.868272350E+00 -1.193324198E-01
  1.881288540E+00 -1.608541517E-01
  5.442492580E-01  1.143456438E+00
   s   1
  1.687144782E-01  1.000000000E+00
   p   3
  7.868272350E+00  6.899906659E-02
  1.881288540E+00  3.164239610E-01
  5.442492580E-01  7.443082909E-01
   p   1
  1.687144782E-01  1.000000000E+00
   d   1
  8.000000000E-01  1.000000000E+00
 
  10
   s   6
  3.047524880E+03  1.834737132E-03
  4.573695180E+02  1.403732281E-02
  1.039486850E+02  6.884262227E-02
  2.921015530E+01  2.321844432E-01
  9.286662960E+00  4.679413484E-01
  3.163926960E+00  3.623119853E-01
   s   3
  7.868272350E+00 -1.193324198E-01
  1.881288540E+00 -1.608541517E-01
  5.442492580E-01  1.143456438E+00
   s   1
  1.687144782E-01  1.000000000E+00
   p   3
  7.868272350E+00  6.899906659E-02
  1.881288540E+00  3.164239610E-01
  5.442492580E-01  7.443082909E-01
   p   1
  1.687144782E-01  1.000000000E+00
   d   1
  8.000000000E-01  1.000000000E+00
 
  11
   s   3
  1.873113696E+01  3.349460434E-02
  2.825394365E+00  2.347269535E-01
  6.401216923E-01  8.137573261E-01
   s   1
  1.612777588E-01  1.000000000E+00
 
  12
   s   3
  1.873113696E+01  3.349460434E-02
  2.825394365E+00  2.347269535E-01
  6.401216923E-01  8.137573261E-01
   s   1
  1.612777588E-01  1.000000000E+00
 
  13
   s   3
  1.873113696E+01  3.349460434E-02
  2.825394365E+00  2.347269535E-01
  6.401216923E-01  8.137573261E-01
   s   1
  1.612777588E-01  1.000000000E+00
 
[MO]
Sym=     1a  
Ene=   -15.5690
Spin= Alpha
Occup=    2.00000
   1         0.00000873
   2         0.00028117
   3         0.00322528
   4        -0.00005965
   5        -0.00007384
   6         0.00000000
   7         0.00104685
   8        -0.00182688
   9         0.00000000
  10        -0.00016732
  11        -0.00038256
  12        -0.00008685
  13        -0.00022993
  14         0.00000000
  15        -0.00000000
  16         0.00002402
  17         0.00008646
  18        -0.00215248
  19         0.00008587
  20        -0.00000285
  21         0.00000000
  22         0.00076235
  23         0.00108065
  24        -0.00000000
  25         0.00000588
  26         0.00004164
  27         0.00001474
  28        -0.00003626
  29         0.00000000
  30        -0.00000000
  31        -0.00000121
  32        -0.00001398
  33         0.00112748
  34         0.00000401
  35         0.00000676
  36        -0.00000000
  37        -0.00052638
  38        -0.00000343
  39         0.00000000
  40        -0.00000267
  41         0.00002228
  42        -0.00000987
  43        -0.00000409
  44         0.00000000
  45        -0.00000000
  46        -0.00003892
  47        -0.00029820
  48         0.99419993
  49         0.02485514
  50        -0.00587517
  51         0.00188813
  52         0.00008843
  53         0.00000000
  54        -0.00265972
  55         0.00026131
  56        -0.00000000
  57        -0.00287310
  58        -0.00270403
  59        -0.00316084
  60         0.00000975
  61         0.00000000
  62         0.00000000
  63         0.00004448
  64         0.00050987
  65        -0.04493631
  66        -0.00107958
  67        -0.00080257
  68         0.00011046
  69        -0.00008329
  70         0.00000000
  71        -0.00005467
  72        -0.00057028
  73        -0.00000000
  74         0.00018606
  75         0.00018658
  76         0.00013627
  77         0.00005514
  78         0.00000000
  79        -0.00000000
  80         0.00000243
  81         0.00008686
  82         0.00002960
  83         0.00033885
  84         0.00243102
  85        -0.00005576
  86         0.00009080
  87        -0.00000000
  88        -0.00035588
  89         0.00213690
  90         0.00000000
  91        -0.00016636
  92        -0.00028251
  93        -0.00004498
  94         0.00020788
  95         0.00000000
  96         0.00000000
  97        -0.00000484
  98        -0.00002108
  99         0.00062655
 100         0.00000942
 101         0.00000287
 102         0.00000000
 103         0.00040875
 104        -0.00008123
 105         0.00000000
 106         0.00004310
 107        -0.00008176
 108        -0.00000307
 109         0.00004206
 110         0.00000000
 111        -0.00000000
 112         0.00003335
 113         0.00001919
 114        -0.00001405
 115        -0.00011174
 116        -0.00001405
 117        -0.00011174
Sym=     2a  
Ene=   -15.5690
Spin= Alpha
Occup=    2.00000
   1         0.00000031
   2        -0.00000902
   3        -0.00149896
   4         0.00000342
   5         0.00000349
   6        -0.00000000
   7        -0.00035535
   8         0.00065730
   9         0.00000000
  10        -0.00000624
  11         0.00002811
  12         0.00001887
  13         0.00000629
  14         0.00000000
  15         0.00000000
  16        -0.00002697
  17        -0.00009925
  18         0.00238422
  19         0.00004167
  20        -0.00006964
  21        -0.00000000
  22        -0.00057223
  23        -0.00137234
  24         0.00000000
  25        -0.00005958
  26         0.00000931
  27        -0.00001741
  28        -0.00000113
  29         0.00000000
  30        -0.00000000
  31        -0.00000848
  32        -0.00027502
  33        -0.00339424
  34         0.00003165
  35         0.00009364
  36         0.00000000
  37         0.00219070
  38         0.00011937
  39        -0.00000000
  40         0.00013564
  41         0.00040444
  42         0.00008881
  43         0.00020517
  44        -0.00000000
  45         0.00000000
  46         0.00004570
  47         0.00033933
  48        -0.04497873
  49        -0.00116082
  50         0.00126148
  51        -0.00004318
  52        -0.00006160
  53        -0.00000000
  54         0.00069228
  55         0.00045215
  56         0.00000000
  57         0.00012456
  58         0.00001748
  59         0.00015657
  60        -0.00001604
  61         0.00000000
  62         0.00000000
  63        -0.00000500
  64        -0.00013698
  65        -0.99419984
  66        -0.02487093
  67         0.00602314
  68         0.00094971
  69        -0.00162321
  70        -0.00000000
  71        -0.00165999
  72         0.00216504
  73        -0.00000000
  74         0.00275649
  75         0.00282119
  76         0.00316401
  77        -0.00009340
  78         0.00000000
  79        -0.00000000
  80        -0.00004511
  81        -0.00052904
  82        -0.00003499
  83        -0.00038323
  84        -0.00252546
  85        -0.00009733
  86        -0.00000519
  87         0.00000000
  88        -0.00206800
  89        -0.00100140
  90        -0.00000000
  91         0.00043022
  92         0.00006176
  93         0.00004214
  94        -0.00004784
  95        -0.00000000
  96         0.00000000
  97         0.00000401
  98         0.00002270
  99        -0.00068692
 100        -0.00000326
 101        -0.00000997
 102         0.00000000
 103         0.00031431
 104        -0.00033465
 105        -0.00000000
 106         0.00003835
 107        -0.00004544
 108         0.00003931
 109         0.00006492
 110         0.00000000
 111        -0.00000000
 112         0.00004545
 113         0.00018585
 114        -0.00001969
 115         0.00000707
 116        -0.00001969
 117         0.00000707
Sym=     3a  
Ene=   -11.3230
Spin= Alpha
Occup=    2.00000
   1        -0.00025429
   2        -0.00034705
   3         0.00383749
   4        -0.00005708
   5        -0.00006356
   6         0.00000000
   7         0.00192037
   8        -0.00247493
   9        -0.00000000
  10         0.00011266
  11         0.00022596
  12        -0.00008246
  13         0.00003995
  14        -0.00000000
  15         0.00000000
  16        -0.00005122
  17         0.00035229
  18        -0.00509558
  19         0.00000527
  20         0.00001182
  21         0.00000000
  22         0.00160321
  23         0.00299743
  24         0.00000000
  25        -0.00003900
  26        -0.00002620
  27         0.00010520
  28         0.00001345
  29        -0.00000000
  30        -0.00000000
  31        -0.00025946
  32        -0.00035154
  33         0.00385205
  34        -0.00002248
  35        -0.00008368
  36         0.00000000
  37        -0.00315949
  38         0.00032373
  39        -0.00000000
  40         0.00016206
  41         0.00017524
  42        -0.00008324
  43         0.00007516
  44         0.00000000
  45        -0.00000000
  46        -0.00010519
  47        -0.00094029
  48        -0.00021842
  49         0.00053051
  50        -0.00231789
  51         0.00004092
  52        -0.00000507
  53        -0.00000000
  54        -0.00181717
  55        -0.00030393
  56         0.00000000
  57        -0.00022295
  58        -0.00035938
  59         0.00030337
  60         0.00013780
  61         0.00000000
  62        -0.00000000
  63         0.00012564
  64         0.00096589
  65        -0.00020989
  66         0.00056412
  67        -0.00268552
  68        -0.00003014
  69         0.00003103
  70        -0.00000000
  71         0.00091644
  72        -0.00164413
  73         0.00000000
  74        -0.00042128
  75        -0.00013054
  76         0.00032152
  77        -0.00001979
  78        -0.00000000
  79        -0.00000000
  80         0.00012827
  81         0.00098179
  82         0.99578806
  83         0.02628677
  84        -0.00708889
  85         0.00022636
  86         0.00039189
  87        -0.00000000
  88         0.00148604
  89         0.00216635
  90        -0.00000000
  91        -0.00108353
  92        -0.00120619
  93        -0.00221507
  94        -0.00011301
  95         0.00000000
  96         0.00000000
  97         0.00366436
  98         0.00023691
  99         0.00301904
 100        -0.00002939
 101        -0.00015635
 102         0.00000000
 103         0.00048520
 104         0.00161666
 105        -0.00000000
 106        -0.00023239
 107        -0.00046325
 108        -0.00008158
 109        -0.00021915
 110         0.00000000
 111         0.00000000
 112        -0.00008655
 113        -0.00009804
 114        -0.00012535
 115         0.00037533
 116        -0.00012535
 117         0.00037533
Sym=     4a  
Ene=   -11.2980
Spin= Alpha
Occup=    2.00000
   1         0.00930196
   2         0.00009313
   3         0.00105792
   4         0.00000961
   5        -0.00005111
   6         0.00000000
   7         0.00081146
   8        -0.00021038
   9         0.00000000
  10         0.00015504
  11         0.00003826
  12        -0.00003570
  13        -0.00004714
  14         0.00000000
  15         0.00000000
  16         0.01093096
  17         0.00028395
  18         0.00290329
  19        -0.00009043
  20         0.00013380
  21         0.00000000
  22         0.00195069
  23        -0.00089891
  24        -0.00000000
  25        -0.00039744
  26        -0.00037527
  27        -0.00008273
  28         0.00009691
  29         0.00000000
  30        -0.00000000
  31         0.99560569
  32         0.02694448
  33        -0.00929185
  34        -0.00042560
  35        -0.00038059
  36        -0.00000000
  37         0.00000602
  38        -0.00202736
  39         0.00000000
  40        -0.00160079
  41        -0.00126894
  42        -0.00238979
  43         0.00012621
  44         0.00000000
  45        -0.00000000
  46        -0.00013484
  47        -0.00036040
  48         0.00006209
  49         0.00023965
  50        -0.00248662
  51        -0.00001374
  52         0.00000413
  53         0.00000000
  54        -0.00097421
  55         0.00060285
  56        -0.00000000
  57         0.00006470
  58         0.00008877
  59         0.00013484
  60         0.00006039
  61        -0.00000000
  62        -0.00000000
  63        -0.00001057
  64         0.00025644
  65        -0.00026270
  66         0.00036788
  67        -0.00083685
  68         0.00006180
  69         0.00004439
  70         0.00000000
  71        -0.00041296
  72        -0.00142713
  73        -0.00000000
  74        -0.00031331
  75        -0.00044516
  76         0.00020497
  77        -0.00021490
  78         0.00000000
  79         0.00000000
  80        -0.00017540
  81         0.00193557
  82         0.00022853
  83        -0.00021911
  84         0.00094047
  85        -0.00003877
  86        -0.00008345
  87        -0.00000000
  88         0.00049453
  89         0.00292437
  90         0.00000000
  91         0.00021704
  92         0.00011471
  93        -0.00004962
  94         0.00002206
  95        -0.00000000
  96         0.00000000
  97         0.00002357
  98        -0.00005031
  99         0.00164285
 100         0.00009828
 101         0.00005201
 102         0.00000000
 103         0.00022617
 104         0.00057274
 105        -0.00000000
 106         0.00002560
 107        -0.00001624
 108         0.00000103
 109         0.00001250
 110         0.00000000
 111         0.00000000
 112        -0.00005196
 113        -0.00013053
 114        -0.00001186
 115        -0.00000750
 116        -0.00001186
 117        -0.00000750
Sym=     5a  
Ene=   -11.2970
Spin= Alpha
Occup=    2.00000
   1         0.99560445
   2         0.02696033
   3        -0.00928570
   4        -0.00009382
   5        -0.00056922
   6         0.00000000
   7        -0.00176476
   8        -0.00111127
   9         0.00000000
  10        -0.00147088
  11        -0.00140341
  12        -0.00239152
  13         0.00023012
  14        -0.00000000
  15        -0.00000000
  16         0.01087754
  17         0.00028320
  18         0.00284901
  19         0.00016310
  20        -0.00000693
  21        -0.00000000
  22        -0.00187869
  23         0.00118633
  24        -0.00000000
  25        -0.00044998
  26        -0.00030810
  27        -0.00008039
  28         0.00005013
  29        -0.00000000
  30        -0.00000000
  31        -0.00943387
  32        -0.00041285
  33         0.00122041
  34        -0.00004076
  35        -0.00001148
  36        -0.00000000
  37        -0.00061786
  38         0.00064711
  39         0.00000000
  40         0.00014004
  41         0.00010489
  42         0.00001044
  43        -0.00008460
  44         0.00000000
  45         0.00000000
  46        -0.00013270
  47        -0.00035513
  48        -0.00026711
  49         0.00035122
  50        -0.00064410
  51         0.00000649
  52         0.00008081
  53         0.00000000
  54        -0.00095632
  55        -0.00126748
  56        -0.00000000
  57        -0.00024840
  58        -0.00052487
  59         0.00019558
  60        -0.00016316
  61        -0.00000000
  62        -0.00000000
  63        -0.00017755
  64         0.00192376
  65         0.00007125
  66         0.00024942
  67        -0.00265768
  68         0.00000743
  69        -0.00001268
  70         0.00000000
  71         0.00115372
  72        -0.00042749
  73        -0.00000000
  74         0.00004166
  75         0.00013951
  76         0.00014065
  77         0.00004157
  78         0.00000000
  79         0.00000000
  80        -0.00000648
  81         0.00022106
  82         0.00022107
  83        -0.00021011
  84         0.00085913
  85        -0.00004959
  86        -0.00007775
  87         0.00000000
  88         0.00247205
  89         0.00187653
  90         0.00000000
  91         0.00012795
  92         0.00019936
  93        -0.00004733
  94        -0.00004258
  95         0.00000000
  96        -0.00000000
  97         0.00000934
  98        -0.00008687
  99         0.00186816
 100         0.00001440
 101         0.00010145
 102         0.00000000
 103         0.00014561
 104         0.00061408
 105        -0.00000000
 106        -0.00004341
 107         0.00001071
 108         0.00000280
 109        -0.00001610
 110        -0.00000000
 111        -0.00000000
 112        -0.00000482
 113        -0.00020940
 114        -0.00005319
 115        -0.00004600
 116        -0.00005319
 117        -0.00004600
Sym=     6a  
Ene=   -11.2440
Spin= Alpha
Occup=    2.00000
   1        -0.01147394
   2        -0.00048045
   3         0.00631654
   4        -0.00017184
   5         0.00000919
   6         0.00000000
   7         0.00225750
   8        -0.00147202
   9        -0.00000000
  10        -0.00046357
  11        -0.00024412
  12        -0.00009217
  13        -0.00005922
  14         0.00000000
  15         0.00000000
  16         0.99551766
  17         0.02810525
  18        -0.01526180
  19        -0.00015511
  20        -0.00029587
  21         0.00000000
  22         0.00159057
  23         0.00293877
  24        -0.00000000
  25        -0.00162945
  26        -0.00177664
  27        -0.00238287
  28        -0.00013257
  29        -0.00000000
  30         0.00000000
  31        -0.01132204
  32        -0.00047459
  33         0.00630378
  34         0.00010150
  35        -0.00013974
  36        -0.00000000
  37        -0.00245588
  38         0.00111409
  39        -0.00000000
  40        -0.00026308
  41        -0.00044913
  42        -0.00009298
  43         0.00009213
  44         0.00000000
  45        -0.00000000
  46        -0.00025346
  47         0.00117695
  48         0.00007229
  49         0.00017650
  50        -0.00260083
  51         0.00002630
  52         0.00001526
  53        -0.00000000
  54        -0.00096143
  55        -0.00026427
  56         0.00000000
  57         0.00017928
  58         0.00018918
  59         0.00011614
  60         0.00004826
  61         0.00000000
  62        -0.00000000
  63        -0.00002033
  64         0.00032247
  65         0.00007318
  66         0.00018004
  67        -0.00264525
  68        -0.00000213
  69         0.00002900
  70         0.00000000
  71         0.00033624
  72        -0.00092972
  73        -0.00000000
  74         0.00014789
  75         0.00022346
  76         0.00011795
  77         0.00002469
  78         0.00000000
  79         0.00000000
  80        -0.00002045
  81         0.00032183
  82         0.00012354
  83         0.00001350
  84         0.00098659
  85        -0.00000194
  86        -0.00000290
  87        -0.00000000
  88         0.00059060
  89         0.00098846
  90        -0.00000000
  91         0.00003461
  92         0.00004726
  93        -0.00000568
  94         0.00001309
  95        -0.00000000
  96         0.00000000
  97        -0.00000017
  98        -0.00002531
  99         0.00059835
 100         0.00001096
 101         0.00001418
 102        -0.00000000
 103         0.00005860
 104         0.00017534
 105         0.00000000
 106        -0.00000665
 107        -0.00001287
 108        -0.00000937
 109        -0.00000657
 110         0.00000000
 111         0.00000000
 112        -0.00001093
 113        -0.00005947
 114        -0.00000731
 115        -0.00002578
 116        -0.00000731
 117        -0.00002578
Sym=     7a  
Ene=   -11.2350
Spin= Alpha
Occup=    2.00000
   1        -0.00003852
   2        -0.00005632
   3         0.00027785
   4        -0.00000255
   5         0.00000319
   6        -0.00000000
   7         0.00002936
   8        -0.00016957
   9        -0.00000000
  10        -0.00000385
  11         0.00001036
  12        -0.00002325
  13         0.00000512
  14         0.00000000
  15        -0.00000000
  16        -0.00001143
  17        -0.00002556
  18         0.00005730
  19        -0.00000188
  20         0.00001599
  21         0.00000000
  22         0.00013342
  23        -0.00002521
  24         0.00000000
  25        -0.00000036
  26        -0.00000083
  27        -0.00001813
  28         0.00000270
  29        -0.00000000
  30        -0.00000000
  31        -0.00003996
  32        -0.00005766
  33         0.00063347
  34        -0.00001049
  35        -0.00003907
  36        -0.00000000
  37        -0.00025996
  38        -0.00048884
  39         0.00000000
  40         0.00001731
  41         0.00003905
  42        -0.00002578
  43         0.00002534
  44        -0.00000000
  45        -0.00000000
  46        -0.00001387
  47         0.00001861
  48        -0.00001156
  49        -0.00012994
  50         0.00004384
  51         0.00001553
  52         0.00006238
  53        -0.00000000
  54         0.00030202
  55        -0.00009398
  56         0.00000000
  57         0.00003737
  58         0.00000903
  59        -0.00011256
  60        -0.00006341
  61        -0.00000000
  62        -0.00000000
  63        -0.00000629
  64         0.00006198
  65        -0.00002704
  66        -0.00019382
  67         0.00080017
  68         0.00006484
  69         0.00009911
  70         0.00000000
  71        -0.00105354
  72        -0.00040620
  73        -0.00000000
  74         0.00009110
  75        -0.00008332
  76        -0.00014918
  77        -0.00003198
  78        -0.00000000
  79         0.00000000
  80        -0.00001629
  81         0.00006604
  82        -0.00397881
  83         0.00006488
  84         0.00313995
  85         0.00002044
  86         0.00003501
  87        -0.00000000
  88        -0.00217274
  89        -0.00219496
  90         0.00000000
  91        -0.00036664
  92        -0.00049533
  93        -0.00012817
  94        -0.00016746
  95         0.00000000
  96         0.00000000
  97         0.99575149
  98         0.02848420
  99        -0.01575697
 100         0.00021932
 101         0.00025177
 102        -0.00000000
 103        -0.00056414
 104        -0.00117566
 105        -0.00000000
 106        -0.00179812
 107        -0.00182611
 108        -0.00180523
 109         0.00002827
 110         0.00000000
 111        -0.00000000
 112         0.00019571
 113         0.00242574
 114         0.00016686
 115         0.00249427
 116         0.00016686
 117         0.00249427
Sym=     8a  
Ene=    -1.2883
Spin= Alpha
Occup=    2.00000
   1        -0.06721978
   2         0.13137637
   3         0.01760836
   4        -0.00201840
   5        -0.06884580
   6        -0.00000000
   7        -0.01008002
   8         0.02466105
   9        -0.00000000
  10         0.00081769
  11         0.01098628
  12        -0.00721399
  13         0.00492360
  14         0.00000000
  15         0.00000000
  16        -0.04529351
  17         0.08184605
  18         0.08550488
  19        -0.01946347
  20        -0.03586407
  21        -0.00000000
  22        -0.01755286
  23        -0.03177584
  24        -0.00000000
  25         0.00468423
  26         0.00346864
  27        -0.00459974
  28        -0.00109865
  29         0.00000000
  30         0.00000000
  31        -0.06727704
  32         0.13148336
  33         0.01727214
  34        -0.05671038
  35        -0.03896125
  36        -0.00000000
  37         0.02629997
  38         0.00561071
  39        -0.00000000
  40         0.00408770
  41         0.00765032
  42        -0.00720309
  43         0.00734580
  44         0.00000000
  45        -0.00000000
  46         0.01314511
  47         0.00843777
  48        -0.11384314
  49         0.22922490
  50         0.25601700
  51         0.08181518
  52        -0.01165827
  53         0.00000000
  54         0.05433191
  55        -0.00148032
  56         0.00000000
  57         0.00321521
  58         0.00743346
  59        -0.00966228
  60        -0.00225115
  61         0.00000000
  62        -0.00000000
  63         0.01911764
  64        -0.00777619
  65        -0.11394854
  66         0.22952648
  67         0.25500027
  68        -0.05449362
  69         0.06225403
  70         0.00000000
  71        -0.02955680
  72         0.04570969
  73         0.00000000
  74         0.00799931
  75         0.00277519
  76        -0.00961059
  77         0.00131117
  78        -0.00000000
  79         0.00000000
  80         0.01915544
  81        -0.00777185
  82        -0.10768430
  83         0.21290332
  84         0.04425576
  85         0.03742664
  86         0.06806900
  87         0.00000000
  88        -0.01073888
  89        -0.02277541
  90         0.00000000
  91         0.01128945
  92         0.00625041
  93        -0.01240915
  94        -0.00446272
  95         0.00000000
  96         0.00000000
  97        -0.02301829
  98         0.04303410
  99         0.02020340
 100         0.01407245
 101         0.02603927
 102        -0.00000000
 103         0.00010741
 104         0.00092084
 105        -0.00000000
 106         0.00092640
 107         0.00505540
 108        -0.00033274
 109         0.00360744
 110        -0.00000000
 111         0.00000000
 112         0.00893899
 113        -0.00008292
 114         0.00872926
 115         0.00018170
 116         0.00872926
 117         0.00018170
Sym=     9a  
Ene=    -1.1644
Spin= Alpha
Occup=    2.00000
   1         0.08315040
   2        -0.16301317
   3        -0.08525525
   4         0.04353622
   5         0.08128510
   6        -0.00000000
   7        -0.00075702
   8        -0.01379260
   9        -0.00000000
  10         0.00068023
  11        -0.01490989
  12         0.00891699
  13        -0.00894927
  14         0.00000000
  15         0.00000000
  16         0.00012614
  17        -0.00025666
  18        -0.00011335
  19         0.05335751
  20        -0.02893380