[Molden Format]
[N_Atoms]
                   13
[Atoms] (AU)
C1          1      6          -1.93916136      2.14413995      0.00000000
C2          2      6           0.69332162      2.24654421      0.00000000
C3          3      6           2.03633108     -0.02014448      0.00000000
H4          4      1           1.67142496      4.04412729      0.00000000
N5          5      7          -3.13237223     -0.12929506      0.00000000
H6          6      1          -3.03425765      3.87097169      0.00000000
N7          7      7           0.77465543     -2.25678653      0.00000000
H8          8      1           4.08114703     -0.00156847      0.00000000
C9          9      6          -1.79493746     -2.32500564      0.00000000
C10        10      6          -3.13796582     -4.80801128      0.00000000
H11        11      1          -5.21821413     -4.52647988      0.00000000
H12        12      1          -2.60540320     -5.90146351      1.70944625
H13        13      1          -2.60540320     -5.90146351     -1.70944625
[Charge] (Mulliken)
   2.5625914761673307E-002
 -0.25815440529709388     
   6.9299415036500278E-002
  0.20623195268513883     
 -0.51151612383259515     
  0.21524415644904105     
 -0.48155976821162305     
  0.21600455393089257     
  0.47291099947597015     
 -0.51433507922164878     
  0.19110823806008204     
  0.18457015199244609     
  0.18456999416949116     
[GTO] (AU)
   1
   s   6
  3.047524880E+03  1.834737132E-03
  4.573695180E+02  1.403732281E-02
  1.039486850E+02  6.884262227E-02
  2.921015530E+01  2.321844432E-01
  9.286662960E+00  4.679413484E-01
  3.163926960E+00  3.623119853E-01
   s   3
  7.868272350E+00 -1.193324198E-01
  1.881288540E+00 -1.608541517E-01
  5.442492580E-01  1.143456438E+00
   s   1
  1.687144782E-01  1.000000000E+00
   p   3
  7.868272350E+00  6.899906659E-02
  1.881288540E+00  3.164239610E-01
  5.442492580E-01  7.443082909E-01
   p   1
  1.687144782E-01  1.000000000E+00
   d   1
  8.000000000E-01  1.000000000E+00
 
   2
   s   6
  3.047524880E+03  1.834737132E-03
  4.573695180E+02  1.403732281E-02
  1.039486850E+02  6.884262227E-02
  2.921015530E+01  2.321844432E-01
  9.286662960E+00  4.679413484E-01
  3.163926960E+00  3.623119853E-01
   s   3
  7.868272350E+00 -1.193324198E-01
  1.881288540E+00 -1.608541517E-01
  5.442492580E-01  1.143456438E+00
   s   1
  1.687144782E-01  1.000000000E+00
   p   3
  7.868272350E+00  6.899906659E-02
  1.881288540E+00  3.164239610E-01
  5.442492580E-01  7.443082909E-01
   p   1
  1.687144782E-01  1.000000000E+00
   d   1
  8.000000000E-01  1.000000000E+00
 
   3
   s   6
  3.047524880E+03  1.834737132E-03
  4.573695180E+02  1.403732281E-02
  1.039486850E+02  6.884262227E-02
  2.921015530E+01  2.321844432E-01
  9.286662960E+00  4.679413484E-01
  3.163926960E+00  3.623119853E-01
   s   3
  7.868272350E+00 -1.193324198E-01
  1.881288540E+00 -1.608541517E-01
  5.442492580E-01  1.143456438E+00
   s   1
  1.687144782E-01  1.000000000E+00
   p   3
  7.868272350E+00  6.899906659E-02
  1.881288540E+00  3.164239610E-01
  5.442492580E-01  7.443082909E-01
   p   1
  1.687144782E-01  1.000000000E+00
   d   1
  8.000000000E-01  1.000000000E+00
 
   4
   s   3
  1.873113696E+01  3.349460434E-02
  2.825394365E+00  2.347269535E-01
  6.401216923E-01  8.137573261E-01
   s   1
  1.612777588E-01  1.000000000E+00
 
   5
   s   6
  4.173511460E+03  1.834772160E-03
  6.274579110E+02  1.399462700E-02
  1.429020930E+02  6.858655181E-02
  4.023432930E+01  2.322408730E-01
  1.282021290E+01  4.690699481E-01
  4.390437010E+00  3.604551991E-01
   s   3
  1.162636186E+01 -1.149611817E-01
  2.716279807E+00 -1.691174786E-01
  7.722183966E-01  1.145851947E+00
   s   1
  2.120314975E-01  1.000000000E+00
   p   3
  1.162636186E+01  6.757974388E-02
  2.716279807E+00  3.239072959E-01
  7.722183966E-01  7.408951398E-01
   p   1
  2.120314975E-01  1.000000000E+00
   d   1
  8.000000000E-01  1.000000000E+00
 
   6
   s   3
  1.873113696E+01  3.349460434E-02
  2.825394365E+00  2.347269535E-01
  6.401216923E-01  8.137573261E-01
   s   1
  1.612777588E-01  1.000000000E+00
 
   7
   s   6
  4.173511460E+03  1.834772160E-03
  6.274579110E+02  1.399462700E-02
  1.429020930E+02  6.858655181E-02
  4.023432930E+01  2.322408730E-01
  1.282021290E+01  4.690699481E-01
  4.390437010E+00  3.604551991E-01
   s   3
  1.162636186E+01 -1.149611817E-01
  2.716279807E+00 -1.691174786E-01
  7.722183966E-01  1.145851947E+00
   s   1
  2.120314975E-01  1.000000000E+00
   p   3
  1.162636186E+01  6.757974388E-02
  2.716279807E+00  3.239072959E-01
  7.722183966E-01  7.408951398E-01
   p   1
  2.120314975E-01  1.000000000E+00
   d   1
  8.000000000E-01  1.000000000E+00
 
   8
   s   3
  1.873113696E+01  3.349460434E-02
  2.825394365E+00  2.347269535E-01
  6.401216923E-01  8.137573261E-01
   s   1
  1.612777588E-01  1.000000000E+00
 
   9
   s   6
  3.047524880E+03  1.834737132E-03
  4.573695180E+02  1.403732281E-02
  1.039486850E+02  6.884262227E-02
  2.921015530E+01  2.321844432E-01
  9.286662960E+00  4.679413484E-01
  3.163926960E+00  3.623119853E-01
   s   3
  7.868272350E+00 -1.193324198E-01
  1.881288540E+00 -1.608541517E-01
  5.442492580E-01  1.143456438E+00
   s   1
  1.687144782E-01  1.000000000E+00
   p   3
  7.868272350E+00  6.899906659E-02
  1.881288540E+00  3.164239610E-01
  5.442492580E-01  7.443082909E-01
   p   1
  1.687144782E-01  1.000000000E+00
   d   1
  8.000000000E-01  1.000000000E+00
 
  10
   s   6
  3.047524880E+03  1.834737132E-03
  4.573695180E+02  1.403732281E-02
  1.039486850E+02  6.884262227E-02
  2.921015530E+01  2.321844432E-01
  9.286662960E+00  4.679413484E-01
  3.163926960E+00  3.623119853E-01
   s   3
  7.868272350E+00 -1.193324198E-01
  1.881288540E+00 -1.608541517E-01
  5.442492580E-01  1.143456438E+00
   s   1
  1.687144782E-01  1.000000000E+00
   p   3
  7.868272350E+00  6.899906659E-02
  1.881288540E+00  3.164239610E-01
  5.442492580E-01  7.443082909E-01
   p   1
  1.687144782E-01  1.000000000E+00
   d   1
  8.000000000E-01  1.000000000E+00
 
  11
   s   3
  1.873113696E+01  3.349460434E-02
  2.825394365E+00  2.347269535E-01
  6.401216923E-01  8.137573261E-01
   s   1
  1.612777588E-01  1.000000000E+00
 
  12
   s   3
  1.873113696E+01  3.349460434E-02
  2.825394365E+00  2.347269535E-01
  6.401216923E-01  8.137573261E-01
   s   1
  1.612777588E-01  1.000000000E+00
 
  13
   s   3
  1.873113696E+01  3.349460434E-02
  2.825394365E+00  2.347269535E-01
  6.401216923E-01  8.137573261E-01
   s   1
  1.612777588E-01  1.000000000E+00
 
[MO]
Sym=     1a  
Ene=   -15.5940
Spin= Alpha
Occup=    1.00000
   1         0.00001040
   2         0.00025976
   3         0.00303057
   4        -0.00006141
   5        -0.00008546
   6         0.00000000
   7         0.00090584
   8        -0.00176554
   9         0.00000000
  10        -0.00014892
  11        -0.00032300
  12        -0.00008989
  13        -0.00020557
  14         0.00000000
  15         0.00000000
  16         0.00002540
  17         0.00008775
  18        -0.00206639
  19         0.00007191
  20         0.00000418
  21         0.00000000
  22         0.00068999
  23         0.00111188
  24         0.00000000
  25         0.00000837
  26         0.00003411
  27         0.00001599
  28        -0.00003607
  29        -0.00000000
  30         0.00000000
  31         0.00000740
  32        -0.00001520
  33         0.00122487
  34         0.00001051
  35         0.00002351
  36        -0.00000000
  37        -0.00056105
  38         0.00001391
  39        -0.00000000
  40        -0.00000093
  41         0.00000140
  42        -0.00000879
  43        -0.00001034
  44         0.00000000
  45         0.00000000
  46        -0.00004212
  47        -0.00030504
  48         0.99518048
  49         0.02496421
  50        -0.00558565
  51         0.00150549
  52         0.00014916
  53         0.00000000
  54        -0.00242543
  55         0.00019547
  56        -0.00000000
  57        -0.00311019
  58        -0.00283254
  59        -0.00317830
  60         0.00004465
  61        -0.00000000
  62         0.00000000
  63         0.00003386
  64         0.00048242
  65        -0.00024566
  66         0.00009268
  67        -0.00095213
  68        -0.00008853
  69         0.00000275
  70        -0.00000000
  71        -0.00006898
  72        -0.00063540
  73        -0.00000000
  74         0.00006484
  75         0.00004993
  76        -0.00000559
  77         0.00005161
  78         0.00000000
  79        -0.00000000
  80         0.00001238
  81         0.00011001
  82         0.00000001
  83         0.00037728
  84         0.00231866
  85         0.00006338
  86         0.00012288
  87        -0.00000000
  88        -0.00024378
  89         0.00212547
  90        -0.00000000
  91        -0.00014468
  92        -0.00021006
  93        -0.00005423
  94         0.00017648
  95        -0.00000000
  96        -0.00000000
  97        -0.00000135
  98        -0.00003309
  99         0.00066699
 100        -0.00000536
 101        -0.00001506
 102         0.00000000
 103         0.00038737
 104        -0.00004296
 105         0.00000000
 106         0.00003604
 107        -0.00008134
 108        -0.00000664
 109         0.00003521
 110        -0.00000000
 111        -0.00000000
 112         0.00003130
 113         0.00003473
 114        -0.00001603
 115        -0.00010596
 116        -0.00001603
 117        -0.00010596
Sym=     1a  
Ene=   -15.5940
Spin= Beta
Occup=    1.00000
   1         0.00001040
   2         0.00025976
   3         0.00303057
   4        -0.00006141
   5        -0.00008546
   6         0.00000000
   7         0.00090584
   8        -0.00176554
   9         0.00000000
  10        -0.00014892
  11        -0.00032300
  12        -0.00008989
  13        -0.00020557
  14         0.00000000
  15         0.00000000
  16         0.00002540
  17         0.00008775
  18        -0.00206639
  19         0.00007191
  20         0.00000418
  21         0.00000000
  22         0.00068999
  23         0.00111188
  24         0.00000000
  25         0.00000837
  26         0.00003411
  27         0.00001599
  28        -0.00003607
  29        -0.00000000
  30         0.00000000
  31         0.00000740
  32        -0.00001520
  33         0.00122487
  34         0.00001051
  35         0.00002351
  36        -0.00000000
  37        -0.00056105
  38         0.00001391
  39        -0.00000000
  40        -0.00000093
  41         0.00000140
  42        -0.00000879
  43        -0.00001034
  44         0.00000000
  45         0.00000000
  46        -0.00004212
  47        -0.00030504
  48         0.99518048
  49         0.02496421
  50        -0.00558565
  51         0.00150549
  52         0.00014916
  53         0.00000000
  54        -0.00242543
  55         0.00019547
  56        -0.00000000
  57        -0.00311019
  58        -0.00283254
  59        -0.00317830
  60         0.00004465
  61        -0.00000000
  62         0.00000000
  63         0.00003386
  64         0.00048242
  65        -0.00024566
  66         0.00009268
  67        -0.00095213
  68        -0.00008853
  69         0.00000275
  70        -0.00000000
  71        -0.00006898
  72        -0.00063540
  73        -0.00000000
  74         0.00006484
  75         0.00004993
  76        -0.00000559
  77         0.00005161
  78         0.00000000
  79        -0.00000000
  80         0.00001238
  81         0.00011001
  82         0.00000001
  83         0.00037728
  84         0.00231866
  85         0.00006338
  86         0.00012288
  87        -0.00000000
  88        -0.00024378
  89         0.00212547
  90        -0.00000000
  91        -0.00014468
  92        -0.00021006
  93        -0.00005423
  94         0.00017648
  95        -0.00000000
  96        -0.00000000
  97        -0.00000135
  98        -0.00003309
  99         0.00066699
 100        -0.00000536
 101        -0.00001506
 102         0.00000000
 103         0.00038737
 104        -0.00004296
 105         0.00000000
 106         0.00003604
 107        -0.00008134
 108        -0.00000664
 109         0.00003521
 110        -0.00000000
 111        -0.00000000
 112         0.00003130
 113         0.00003473
 114        -0.00001603
 115        -0.00010596
 116        -0.00001603
 117        -0.00010596
Sym=     2a  
Ene=   -15.5760
Spin= Alpha
Occup=    1.00000
   1         0.00002064
   2        -0.00004857
   3        -0.00124324
   4         0.00013454
   5         0.00008903
   6        -0.00000000
   7        -0.00025343
   8         0.00052499
   9        -0.00000000
  10         0.00001500
  11        -0.00002021
  12         0.00001544
  13         0.00001111
  14        -0.00000000
  15         0.00000000
  16        -0.00008852
  17         0.00005454
  18         0.00237358
  19        -0.00001173
  20        -0.00020541
  21        -0.00000000
  22        -0.00050331
  23        -0.00128233
  24        -0.00000000
  25        -0.00004458
  26         0.00000229
  27        -0.00001287
  28        -0.00001305
  29         0.00000000
  30        -0.00000000
  31         0.00007117
  32        -0.00045941
  33        -0.00319014
  34         0.00016936
  35         0.00042960
  36         0.00000000
  37         0.00203719
  38         0.00019657
  39         0.00000000
  40         0.00009087
  41         0.00039173
  42         0.00009795
  43         0.00015387
  44        -0.00000000
  45        -0.00000000
  46        -0.00003977
  47         0.00012861
  48        -0.00037332
  49         0.00021263
  50         0.00143643
  51        -0.00064916
  52        -0.00007810
  53        -0.00000000
  54         0.00004002
  55         0.00035302
  56        -0.00000000
  57        -0.00003574
  58        -0.00009662
  59         0.00003026
  60        -0.00001134
  61        -0.00000000
  62        -0.00000000
  63        -0.00006335
  64        -0.00017648
  65        -0.99543513
  66        -0.02448492
  67         0.00647884
  68         0.00080202
  69        -0.00248500
  70         0.00000001
  71        -0.00136935
  72         0.00122214
  73         0.00000000
  74         0.00301409
  75         0.00300362
  76         0.00327126
  77        -0.00013309
  78        -0.00000000
  79         0.00000000
  80        -0.00008065
  81        -0.00053884
  82         0.00000374
  83        -0.00047150
  84        -0.00233859
  85         0.00014178
  86        -0.00019194
  87         0.00000000
  88        -0.00197454
  89        -0.00098707
  90         0.00000000
  91         0.00040632
  92        -0.00002392
  93         0.00003728
  94        -0.00011141
  95         0.00000000
  96         0.00000000
  97         0.00005699
  98        -0.00007487
  99        -0.00098859
 100        -0.00011433
 101        -0.00014849
 102        -0.00000000
 103         0.00025489
 104        -0.00044897
 105        -0.00000000
 106         0.00005467
 107        -0.00004810
 108         0.00003572
 109         0.00005732
 110         0.00000000
 111         0.00000000
 112         0.00009500
 113         0.00031975
 114        -0.00002998
 115         0.00004202
 116        -0.00002998
 117         0.00004202
Sym=     2a  
Ene=   -15.5760
Spin= Beta
Occup=    1.00000
   1         0.00002064
   2        -0.00004857
   3        -0.00124324
   4         0.00013454
   5         0.00008903
   6        -0.00000000
   7        -0.00025343
   8         0.00052499
   9        -0.00000000
  10         0.00001500
  11        -0.00002021
  12         0.00001544
  13         0.00001111
  14        -0.00000000
  15         0.00000000
  16        -0.00008852
  17         0.00005454
  18         0.00237358
  19        -0.00001173
  20        -0.00020541
  21        -0.00000000
  22        -0.00050331
  23        -0.00128233
  24        -0.00000000
  25        -0.00004458
  26         0.00000229
  27        -0.00001287
  28        -0.00001305
  29         0.00000000
  30        -0.00000000
  31         0.00007117
  32        -0.00045941
  33        -0.00319014
  34         0.00016936
  35         0.00042960
  36         0.00000000
  37         0.00203719
  38         0.00019657
  39         0.00000000
  40         0.00009087
  41         0.00039173
  42         0.00009795
  43         0.00015387
  44        -0.00000000
  45        -0.00000000
  46        -0.00003977
  47         0.00012861
  48        -0.00037332
  49         0.00021263
  50         0.00143643
  51        -0.00064916
  52        -0.00007810
  53        -0.00000000
  54         0.00004002
  55         0.00035302
  56        -0.00000000
  57        -0.00003574
  58        -0.00009662
  59         0.00003026
  60        -0.00001134
  61        -0.00000000
  62        -0.00000000
  63        -0.00006335
  64        -0.00017648
  65        -0.99543513
  66        -0.02448492
  67         0.00647884
  68         0.00080202
  69        -0.00248500
  70         0.00000001
  71        -0.00136935
  72         0.00122214
  73         0.00000000
  74         0.00301409
  75         0.00300362
  76         0.00327126
  77        -0.00013309
  78        -0.00000000
  79         0.00000000
  80        -0.00008065
  81        -0.00053884
  82         0.00000374
  83        -0.00047150
  84        -0.00233859
  85         0.00014178
  86        -0.00019194
  87         0.00000000
  88        -0.00197454
  89        -0.00098707
  90         0.00000000
  91         0.00040632
  92        -0.00002392
  93         0.00003728
  94        -0.00011141
  95         0.00000000
  96         0.00000000
  97         0.00005699
  98        -0.00007487
  99        -0.00098859
 100        -0.00011433
 101        -0.00014849
 102        -0.00000000
 103         0.00025489
 104        -0.00044897
 105        -0.00000000
 106         0.00005467
 107        -0.00004810
 108         0.00003572
 109         0.00005732
 110         0.00000000
 111         0.00000000
 112         0.00009500
 113         0.00031975
 114        -0.00002998
 115         0.00004202
 116        -0.00002998
 117         0.00004202
Sym=     3a  
Ene=   -11.3000
Spin= Alpha
Occup=    1.00000
   1        -0.00045746
   2        -0.00040078
   3         0.00390036
   4         0.00000858
   5        -0.00001003
   6        -0.00000000
   7         0.00206873
   8        -0.00253834
   9        -0.00000000
  10         0.00012815
  11         0.00020642
  12        -0.00009031
  13         0.00004462
  14        -0.00000000
  15         0.00000000
  16        -0.00002832
  17         0.00041304
  18        -0.00509296
  19        -0.00002682
  20        -0.00003478
  21        -0.00000000
  22         0.00164408
  23         0.00298878
  24        -0.00000000
  25        -0.00003812
  26        -0.00003259
  27         0.00010414
  28         0.00000669
  29         0.00000000
  30        -0.00000000
  31        -0.00045140
  32        -0.00043244
  33         0.00384509
  34         0.00002827
  35         0.00002736
  36         0.00000000
  37        -0.00320905
  38         0.00034107
  39         0.00000000
  40         0.00015159
  41         0.00017988
  42        -0.00008670
  43         0.00006134
  44        -0.00000000
  45        -0.00000000
  46        -0.00013695
  47        -0.00101427
  48        -0.00026262
  49         0.00068805
  50        -0.00213992
  51        -0.00035470
  52        -0.00000676
  53        -0.00000000
  54        -0.00211988
  55        -0.00019483
  56        -0.00000000
  57        -0.00025125
  58        -0.00038632
  59         0.00030549
  60         0.00019164
  61        -0.00000000
  62        -0.00000000
  63         0.00010044
  64         0.00097809
  65        -0.00031015
  66         0.00078998
  67        -0.00229589
  68         0.00007981
  69        -0.00038579
  70         0.00000000
  71         0.00100002
  72        -0.00189588
  73         0.00000000
  74        -0.00043821
  75        -0.00013539
  76         0.00031210
  77         0.00000172
  78        -0.00000000
  79         0.00000000
  80         0.00011309
  81         0.00098462
  82         0.99570368
  83         0.02692563
  84        -0.00689774
  85         0.00030872
  86         0.00054027
  87         0.00000000
  88         0.00129628
  89         0.00186389
  90         0.00000000
  91        -0.00133038
  92        -0.00147492
  93        -0.00233719
  94        -0.00012997
  95         0.00000000
  96         0.00000000
  97         0.00495575
  98         0.00023191
  99         0.00263345
 100        -0.00006130
 101        -0.00020205
 102        -0.00000000
 103         0.00043814
 104         0.00147544
 105        -0.00000000
 106        -0.00021957
 107        -0.00044278
 108        -0.00008554
 109        -0.00020489
 110         0.00000000
 111         0.00000000
 112        -0.00006613
 113        -0.00003085
 114        -0.00012195
 115         0.00038334
 116        -0.00012195
 117         0.00038334
Sym=     3a  
Ene=   -11.3000
Spin= Beta
Occup=    1.00000
   1        -0.00045746
   2        -0.00040078
   3         0.00390036
   4         0.00000858
   5        -0.00001003
   6        -0.00000000
   7         0.00206873
   8        -0.00253834
   9        -0.00000000
  10         0.00012815
  11         0.00020642
  12        -0.00009031
  13         0.00004462
  14        -0.00000000
  15         0.00000000
  16        -0.00002832
  17         0.00041304
  18        -0.00509296
  19        -0.00002682
  20        -0.00003478
  21        -0.00000000
  22         0.00164408
  23         0.00298878
  24        -0.00000000
  25        -0.00003812
  26        -0.00003259
  27         0.00010414
  28         0.00000669
  29         0.00000000
  30        -0.00000000
  31        -0.00045140
  32        -0.00043244
  33         0.00384509
  34         0.00002827
  35         0.00002736
  36         0.00000000
  37        -0.00320905
  38         0.00034107
  39         0.00000000
  40         0.00015159
  41         0.00017988
  42        -0.00008670
  43         0.00006134
  44        -0.00000000
  45        -0.00000000
  46        -0.00013695
  47        -0.00101427
  48        -0.00026262
  49         0.00068805
  50        -0.00213992
  51        -0.00035470
  52        -0.00000676
  53        -0.00000000
  54        -0.00211988
  55        -0.00019483
  56        -0.00000000
  57        -0.00025125
  58        -0.00038632
  59         0.00030549
  60         0.00019164
  61        -0.00000000
  62        -0.00000000
  63         0.00010044
  64         0.00097809
  65        -0.00031015
  66         0.00078998
  67        -0.00229589
  68         0.00007981
  69        -0.00038579
  70         0.00000000
  71         0.00100002
  72        -0.00189588
  73         0.00000000
  74        -0.00043821
  75        -0.00013539
  76         0.00031210
  77         0.00000172
  78        -0.00000000
  79         0.00000000
  80         0.00011309
  81         0.00098462
  82         0.99570368
  83         0.02692563
  84        -0.00689774
  85         0.00030872
  86         0.00054027
  87         0.00000000
  88         0.00129628
  89         0.00186389
  90         0.00000000
  91        -0.00133038
  92        -0.00147492
  93        -0.00233719
  94        -0.00012997
  95         0.00000000
  96         0.00000000
  97         0.00495575
  98         0.00023191
  99         0.00263345
 100        -0.00006130
 101        -0.00020205
 102        -0.00000000
 103         0.00043814
 104         0.00147544
 105        -0.00000000
 106        -0.00021957
 107        -0.00044278
 108        -0.00008554
 109        -0.00020489
 110         0.00000000
 111         0.00000000
 112        -0.00006613
 113        -0.00003085
 114        -0.00012195
 115         0.00038334
 116        -0.00012195
 117         0.00038334
Sym=     4a  
Ene=   -11.2790
Spin= Alpha
Occup=    1.00000
   1         0.00130767
   2        -0.00011704
   3         0.00104690
   4         0.00001340
   5        -0.00004507
   6        -0.00000000
   7         0.00081157
   8        -0.00014945
   9        -0.00000000
  10         0.00016373
  11         0.00004593
  12        -0.00001426
  13        -0.00005196
  14        -0.00000000
  15        -0.00000000
  16         0.01271499
  17         0.00031961
  18         0.00288843
  19        -0.00008653
  20         0.00011756
  21        -0.00000000
  22         0.00190600
  23        -0.00097723
  24        -0.00000000
  25        -0.00037939
  26        -0.00034670
  27        -0.00008837
  28         0.00007347
  29         0.00000000
  30        -0.00000000
  31         0.99558408
  32         0.02720301
  33        -0.00908780
  34        -0.00055212
  35        -0.00063078
  36         0.00000000
  37         0.00012664
  38        -0.00201181
  39         0.00000000
  40        -0.00168164
  41        -0.00135044
  42        -0.00240903
  43         0.00016402
  44        -0.00000000
  45        -0.00000000
  46        -0.00012641
  47        -0.00032603
  48         0.00005834
  49         0.00025204
  50        -0.00252773
  51        -0.00005031
  52         0.00000572
  53         0.00000000
  54        -0.00100937
  55         0.00067057
  56         0.00000000
  57         0.00006562
  58         0.00009362
  59         0.00013634
  60         0.00006848
  61         0.00000000
  62        -0.00000000
  63        -0.00001436
  64         0.00022275
  65        -0.00026348
  66         0.00043563
  67        -0.00093986
  68         0.00006994
  69        -0.00002587
  70         0.00000000
  71        -0.00050529
  72        -0.00162376
  73         0.00000000
  74        -0.00031231
  75        -0.00051642
  76         0.00021300
  77        -0.00026122
  78        -0.00000000
  79         0.00000000
  80        -0.00018136
  81         0.00183421
  82         0.00044568
  83        -0.00023716
  84         0.00095783
  85        -0.00004157
  86        -0.00009865
  87         0.00000000
  88         0.00047489
  89         0.00308954
  90         0.00000000
  91         0.00022282
  92         0.00011904
  93        -0.00005442
  94         0.00001677
  95         0.00000000
  96         0.00000000
  97         0.00003897
  98        -0.00005165
  99         0.00170654
 100         0.00010332
 101         0.00005065
 102        -0.00000000
 103         0.00023014
 104         0.00059816
 105        -0.00000000
 106         0.00002758
 107        -0.00001547
 108         0.00000204
 109         0.00001259
 110         0.00000000
 111         0.00000000
 112        -0.00005503
 113        -0.00013512
 114        -0.00001027
 115        -0.00000483
 116        -0.00001027
 117        -0.00000483
Sym=     4a  
Ene=   -11.2790
Spin= Beta
Occup=    1.00000
   1         0.00130767
   2        -0.00011704
   3         0.00104690
   4         0.00001340
   5        -0.00004507
   6        -0.00000000
   7         0.00081157
   8        -0.00014945
   9        -0.00000000
  10         0.00016373
  11         0.00004593
  12        -0.00001426
  13        -0.00005196
  14        -0.00000000
  15        -0.00000000
  16         0.01271499
  17         0.00031961
  18         0.00288843
  19        -0.00008653
  20         0.00011756
  21        -0.00000000
  22         0.00190600
  23        -0.00097723
  24        -0.00000000
  25        -0.00037939
  26        -0.00034670
  27        -0.00008837
  28         0.00007347
  29         0.00000000
  30        -0.00000000
  31         0.99558408
  32         0.02720301
  33        -0.00908780
  34        -0.00055212
  35        -0.00063078
  36         0.00000000
  37         0.00012664
  38        -0.00201181
  39         0.00000000
  40        -0.00168164
  41        -0.00135044
  42        -0.00240903
  43         0.00016402
  44        -0.00000000
  45        -0.00000000
  46        -0.00012641
  47        -0.00032603
  48         0.00005834
  49         0.00025204
  50        -0.00252773
  51        -0.00005031
  52         0.00000572
  53         0.00000000
  54        -0.00100937
  55         0.00067057
  56         0.00000000
  57         0.00006562
  58         0.00009362
  59         0.00013634
  60         0.00006848
  61         0.00000000
  62        -0.00000000
  63        -0.00001436
  64         0.00022275
  65        -0.00026348
  66         0.00043563
  67        -0.00093986
  68         0.00006994
  69        -0.00002587
  70         0.00000000
  71        -0.00050529
  72        -0.00162376
  73         0.00000000
  74        -0.00031231
  75        -0.00051642
  76         0.00021300
  77        -0.00026122
  78        -0.00000000
  79         0.00000000
  80        -0.00018136
  81         0.00183421
  82         0.00044568
  83        -0.00023716
  84         0.00095783
  85        -0.00004157
  86        -0.00009865
  87         0.00000000
  88         0.00047489
  89         0.00308954
  90         0.00000000
  91         0.00022282
  92         0.00011904
  93        -0.00005442
  94         0.00001677
  95         0.00000000
  96         0.00000000
  97         0.00003897
  98        -0.00005165
  99         0.00170654
 100         0.00010332
 101         0.00005065
 102        -0.00000000
 103         0.00023014
 104         0.00059816
 105        -0.00000000
 106         0.00002758
 107        -0.00001547
 108         0.00000204
 109         0.00001259
 110         0.00000000
 111         0.00000000
 112        -0.00005503
 113        -0.00013512
 114        -0.00001027
 115        -0.00000483
 116        -0.00001027
 117        -0.00000483
Sym=     5a  
Ene=   -11.2760
Spin= Alpha
Occup=    1.00000
   1         0.99555854
   2         0.02725931
   3        -0.00900583
   4        -0.00024104
   5        -0.00085586
   6        -0.00000000
   7        -0.00181624
   8        -0.00098794
   9         0.00000000
  10        -0.00159327
  11        -0.00146385
  12        -0.00241263
  13         0.00024782
  14        -0.00000000
  15        -0.00000000
  16         0.01384819
  17         0.00035081
  18         0.00286641
  19         0.00014488
  20        -0.00000973