   This run of MOLCAS is using the pymolcas driver

                             OPE
                             OPE          NMOL  CASOP  ENMOLC A   SO
                 OPE        NMOLC        AS  OP EN  MO LC     AS  OP
                OPENM       OL CA        SO  PE NM  OL CA     SOP EN
                OP EN      MO   LC       AS  OP ENMOL  CASO   PENMOL
                OP  EN     MO   LC       AS  OP EN     MO     LC ASO
               OP   E  NMOL  C  AS       OP  EN MO     LC     AS  OP
               OP  E   NMO   LC AS        OPEN  MO     LCASOP EN   M
               O  PEN   MO  LCA  SO
            OPE   NMO   L   CAS    OP
        OPENMOL  CASOP     ENMOL   CASOPE
     OPENMOLCA   SOPENMOLCASOPEN   MOLCASOPE
    OPENMOLCAS   OP           EN   MOL    CAS
    OPENMOLCAS       OP  ENM        O     LCA
    OPENMOLCAS    OPEN  MOLCASO     P  E  NMO
    OPENMOLCAS     OP               E  N  MOL
    OPENMOLCA   SO           PENM   O  L  CAS    OPEN    MO    LCAS
    OPENMOLCA   SOP           ENM   O  L  CAS   OP  EN  MOLC  AS   O
    OPENMOLCA   SOPE           NM      O  LCA   S      OP  EN MO
    OPENMOLC                AS         O  PEN   M      OL  CA  SOPE
    OPENMO        LCASOPE  NMOL        C  ASO   P      ENMOLC     AS
    OPE     NMO      LCA  SO     P     E   NM   OL  CA SO  PE N   MO
          OPENMOLCA            SOPE   NMO        LCAS  O    P  ENMO
     OPENMOLCASOPENMOLCASOPENMOLCASOPENMOLCA
        OPENMOLCASOPENMOLCASOPENMOLCASOPE
            OPENMOLCASOPENMOLCASOPENM
               OPENMOLCASOPENMOLCA        version: 24.02
                   OPENMOLCASO
                       OPE                tag: 428-g03afa2e9a

 OpenMolcas is free software; you can redistribute it and/or modify it
 under the terms of the GNU Lesser General Public License version 2.1.
 OpenMolcas is distributed in the hope that it will be useful, but it
 is provided "as is" and without any express or implied warranties.
 For more details see the full text of the license in the file
 LICENSE or in <http://www.gnu.org/licenses/>.

                 Copyright (C) The OpenMolcas Authors
           For the author list and the recommended citation,
                   consult the file CONTRIBUTORS.md

           *************************************************
           * pymolcas version py2.28                       *
           *   build c4a6d18ded8cb6cad61d2372a9abd97c      *
           *   (after the EMIL interpreter by V. Veryazov) *
           *************************************************

configuration info
------------------
Host name: DESKTOP-ET1S6F4 (Linux)
C Compiler ID: GNU
C flags: -std=gnu99 -fopenmp
Fortran Compiler ID: GNU
Fortran flags: -fno-aggressive-loop-optimizations -cpp -fdefault-integer-8 -fopenmp
Definitions: _WARNING_WORKAROUND_;_MOLCAS_;_I8_;_LINUX_
Parallel: OFF (GA=OFF)


   ----------------------------------------------------------------------
  |
  |           Project: 2-methylpyrimidine
  |    Submitted from: /home/kenya/molcas_test/0702
  |      Scratch area: /tmp/2-methylpyrimidine
  |   Save outputs to: /home/kenya/molcas_test/0702
  |            Molcas: /home/kenya/OpenMolcas/builds/gnu_dev_omp
  |
  | Scratch area is empty
  |
  |    MOLCAS_DRIVER = /home/kenya/OpenMolcas/builds/gnu_dev_omp/pymolcas
  |    MOLCAS_NPROCS = 1
  |    MOLCAS_SOURCE = /home/kenya/OpenMolcas
  | MOLCAS_STRUCTURE = 0
  |
   ----------------------------------------------------------------------

++ ---------   Input file   ---------

&GATEWAY
Coord = 13
        Energy:      10.0910534
C         -1.02616        1.13463       -0.00000
C          0.36689        1.18882       -0.00000
C          1.07758       -0.01066        0.00000
H          0.88448        2.14006       -0.00000
N         -1.65758       -0.06842       -0.00000
H         -1.60566        2.04843       -0.00000
N          0.40993       -1.19424        0.00000
H          2.15965       -0.00083        0.00000
C         -0.94984       -1.23034        0.00000
C         -1.66054       -2.54429        0.00000
H         -2.76136       -2.39531        0.00000
H         -1.37872       -3.12292        0.90460
H         -1.37872       -3.12292       -0.90460
  Basis = 6-31G*
  Group = C1
  RICD

&SEWARD

&SCF

&RASSCF
  alter = 1
  1 23 24
  Inactive = 22
  RAS2   = 6
  nActEl = 6 0 0
  LUMORB

-- ----------------------------------

--- Start Module: gateway at Tue Jul  9 12:23:07 2024 ---

()()()()()()()()()()()()()()()()()()()()()()()()()()()()()()()()()()()()()()()()()()()()()()()()()()

                                              &GATEWAY

                                   only a single process is used
                       available to each process: 2.0 GB of memory, 1 thread
                                            pid: 677029
()()()()()()()()()()()()()()()()()()()()()()()()()()()()()()()()()()()()()()()()()()()()()()()()()()


++    Symmetry information:
      ---------------------

                    Character Table for C1 

                             E  
                    a        1  x, y, xy, Rz, z, xz, Ry, yz, Rx, I
--


++    Basis set information:
      ----------------------


      Basis set label: C.6-31G**....

      Electronic valence basis set:
      ------------------
      Associated Effective Charge   6.000000 au
      Associated Actual Charge      6.000000 au
      Nuclear Model: Point charge

      Shell  nPrim  nBasis  Cartesian Spherical Contaminant
         s      10       3        X                  
         p       4       2        X                  
         d       1       1        X                  


      Basis set label: H.6-31G....

      Electronic valence basis set:
      ------------------
      Associated Effective Charge   1.000000 au
      Associated Actual Charge      1.000000 au
      Nuclear Model: Point charge

      Shell  nPrim  nBasis  Cartesian Spherical Contaminant
         s       4       2        X                  


      Basis set label: N.6-31G**....

      Electronic valence basis set:
      ------------------
      Associated Effective Charge   7.000000 au
      Associated Actual Charge      7.000000 au
      Nuclear Model: Point charge

      Shell  nPrim  nBasis  Cartesian Spherical Contaminant
         s      10       3        X                  
         p       4       2        X                  
         d       1       1        X                  


      Basis set label: H.6-31G....

      Electronic valence basis set:
      ------------------
      Associated Effective Charge   1.000000 au
      Associated Actual Charge      1.000000 au
      Nuclear Model: Point charge

      Shell  nPrim  nBasis  Cartesian Spherical Contaminant
         s       4       2        X                  


      Basis set label: N.6-31G**....

      Electronic valence basis set:
      ------------------
      Associated Effective Charge   7.000000 au
      Associated Actual Charge      7.000000 au
      Nuclear Model: Point charge

      Shell  nPrim  nBasis  Cartesian Spherical Contaminant
         s      10       3        X                  
         p       4       2        X                  
         d       1       1        X                  


      Basis set label: H.6-31G....

      Electronic valence basis set:
      ------------------
      Associated Effective Charge   1.000000 au
      Associated Actual Charge      1.000000 au
      Nuclear Model: Point charge

      Shell  nPrim  nBasis  Cartesian Spherical Contaminant
         s       4       2        X                  


      Basis set label: C.6-31G**....

      Electronic valence basis set:
      ------------------
      Associated Effective Charge   6.000000 au
      Associated Actual Charge      6.000000 au
      Nuclear Model: Point charge

      Shell  nPrim  nBasis  Cartesian Spherical Contaminant
         s      10       3        X                  
         p       4       2        X                  
         d       1       1        X                  


      Basis set label: H.6-31G....

      Electronic valence basis set:
      ------------------
      Associated Effective Charge   1.000000 au
      Associated Actual Charge      1.000000 au
      Nuclear Model: Point charge

      Shell  nPrim  nBasis  Cartesian Spherical Contaminant
         s       4       2        X                  
--


++    Molecular structure info:
      -------------------------

                    ************************************************ 
                    **** Cartesian Coordinates / Bohr, Angstrom **** 
                    ************************************************ 

     Center  Label                x              y              z                     x              y              z
        1      C1              -1.939161       2.144140       0.000000             -1.026160       1.134630       0.000000
        2      C2               0.693322       2.246544       0.000000              0.366890       1.188820       0.000000
        3      C3               2.036331      -0.020144       0.000000              1.077580      -0.010660       0.000000
        4      H4               1.671425       4.044127       0.000000              0.884480       2.140060       0.000000
        5      N5              -3.132372      -0.129295       0.000000             -1.657580      -0.068420       0.000000
        6      H6              -3.034258       3.870972       0.000000             -1.605660       2.048430       0.000000
        7      N7               0.774655      -2.256787       0.000000              0.409930      -1.194240       0.000000
        8      H8               4.081147      -0.001568       0.000000              2.159650      -0.000830       0.000000
        9      C9              -1.794937      -2.325006       0.000000             -0.949840      -1.230340       0.000000
       10      C10             -3.137966      -4.808011       0.000000             -1.660540      -2.544290       0.000000
       11      H11             -5.218214      -4.526480       0.000000             -2.761360      -2.395310       0.000000
       12      H12             -2.605403      -5.901464       1.709446             -1.378720      -3.122920       0.904600
       13      H13             -2.605403      -5.901464      -1.709446             -1.378720      -3.122920      -0.904600

                    *************************************** 
                    *    InterNuclear Distances / Bohr    * 
                    *************************************** 

               1 C1            2 C2            3 C3            4 H4            5 N5            6 H6    
    1 C1       0.000000
    2 C2       2.634474        0.000000
    3 C3       4.526441        2.634683        0.000000
    4 H4       4.079986        2.046458        4.080620        0.000000
    5 N5       2.567539        4.503393        5.169856        6.363483        0.000000
    6 H6       2.044794        4.066154        6.391530        4.708867        4.001470        0.000000
    7 N7       5.170392        4.504065        2.567955        6.364410        4.448717        7.215070
    8 H8       6.391258        4.065879        2.044900        4.708972        7.214650        8.100960
    9 C9       4.471472        5.204854        4.471130        7.251312        2.570968        6.318706
   10 C10      7.054753        8.027796        7.049611       10.074254        4.678720        8.679603
   11 H11      7.432991        8.990001        8.540227       10.996474        4.866823        8.676800
   12 H12      8.252140        8.955100        7.684908       10.960303        6.042999        9.930086
   13 H13      8.252140        8.955100        7.684908       10.960303        6.042999        9.930086

               7 N7            8 H8            9 C9           10 C10          11 H11          12 H12   
    7 N7       0.000000
    8 H8       4.002361        0.000000
    9 C9       2.570498        6.318760        0.000000
   10 C10      4.670905        8.672801        2.822949        0.000000
   11 H11      6.408275       10.341806        4.070051        2.099212        0.000000
   12 H12      5.256489        9.079698        4.046000        2.097967        3.411681        0.000000
   13 H13      5.256489        9.079698        4.046000        2.097967        3.411681        3.418893

              13 H13   
   13 H13      0.000000

                    ******************************************* 
                    *    InterNuclear Distances / Angstrom    * 
                    ******************************************* 

               1 C1            2 C2            3 C3            4 H4            5 N5            6 H6    
    1 C1       0.000000
    2 C2       1.394104        0.000000
    3 C3       2.395289        1.394214        0.000000
    4 H4       2.159036        1.082939        2.159371        0.000000
    5 N5       1.358683        2.383093        2.735770        3.367410        0.000000
    6 H6       1.082059        2.151716        3.382252        2.491825        2.117487        0.000000
    7 N7       2.736054        2.383449        1.358903        3.367901        2.354160        3.818051
    8 H8       3.382108        2.151570        1.082115        2.491881        3.817828        4.286843
    9 C9       2.366201        2.754290        2.366020        3.837229        1.360498        3.343715
   10 C10      3.733214        4.248127        3.730494        5.331066        2.475872        4.593048
   11 H11      3.933369        4.757303        4.519294        5.819083        2.575412        4.591565
   12 H12      4.366845        4.738835        4.066678        5.799943        3.197817        5.254775
   13 H13      4.366845        4.738835        4.066678        5.799943        3.197817        5.254775

               7 N7            8 H8            9 C9           10 C10          11 H11          12 H12   
    7 N7       0.000000
    8 H8       2.117958        0.000000
    9 C9       1.360249        3.343744        0.000000
   10 C10      2.471736        4.589449        1.493840        0.000000
   11 H11      3.391113        5.472648        2.153778        1.110855        0.000000
   12 H12      2.781614        4.804769        2.141051        1.110197        1.805384        0.000000
   13 H13      2.781614        4.804769        2.141051        1.110197        1.805384        1.809200

              13 H13   
   13 H13      0.000000

                    ************************************** 
                    *    Valence Bond Angles / Degree    * 
                    ************************************** 
                          Atom centers                 Phi
                      2 C2       1 C1       5 N5       119.92
                      2 C2       1 C1       6 H6       120.15
                      5 N5       1 C1       6 H6       119.93
                      1 C1       2 C2       3 C3       118.42
                      1 C1       2 C2       4 H4       120.78
                      3 C3       2 C2       4 H4       120.80
                      2 C2       3 C3       7 N7       119.93
                      2 C2       3 C3       8 H8       120.13
                      7 N7       3 C3       8 H8       119.95
                      1 C1       5 N5       9 C9       120.96
                      3 C3       7 N7       9 C9       120.95
                      5 N5       9 C9       7 N7       119.83
                      5 N5       9 C9      10 C10      120.25
                      7 N7       9 C9      10 C10      119.93
                      9 C9      10 C10     11 H11      110.70
                      9 C9      10 C10     12 H12      109.73
                      9 C9      10 C10     13 H13      109.73
                     11 H11     10 C10     12 H12      108.75
                     11 H11     10 C10     13 H13      108.75
                     12 H12     10 C10     13 H13      109.14

           ***************************************************************
           *              Valence Dihedral Angles / Degree               *
           ***************************************************************
                    Atom centers                       Phi1     Phi2     Theta 
           2 C2       1 C1       5 N5       9 C9        119.92   120.96    -0.00
           6 H6       1 C1       5 N5       9 C9        119.93   120.96  -180.00
           3 C3       2 C2       1 C1       5 N5        118.42   119.92    -0.00
           3 C3       2 C2       1 C1       6 H6        118.42   120.15  -180.00
           4 H4       2 C2       1 C1       5 N5        120.78   119.92  -180.00
           4 H4       2 C2       1 C1       6 H6        120.78   120.15    -0.00
           1 C1       2 C2       3 C3       7 N7        118.42   119.93    -0.00
           1 C1       2 C2       3 C3       8 H8        118.42   120.13  -180.00
           4 H4       2 C2       3 C3       7 N7        120.80   119.93  -180.00
           4 H4       2 C2       3 C3       8 H8        120.80   120.13     0.00
           2 C2       3 C3       7 N7       9 C9        119.93   120.95    -0.00
           8 H8       3 C3       7 N7       9 C9        119.95   120.95  -180.00
           1 C1       5 N5       9 C9       7 N7        120.96   119.83     0.00
           1 C1       5 N5       9 C9      10 C10       120.96   120.25  -180.00
           3 C3       7 N7       9 C9       5 N5        120.95   119.83    -0.00
           3 C3       7 N7       9 C9      10 C10       120.95   119.93  -180.00
           5 N5       9 C9      10 C10     11 H11       120.25   110.70    -0.00
           5 N5       9 C9      10 C10     12 H12       120.25   109.73  -120.04
           5 N5       9 C9      10 C10     13 H13       120.25   109.73   120.04
           7 N7       9 C9      10 C10     11 H11       119.93   110.70  -180.00
           7 N7       9 C9      10 C10     12 H12       119.93   109.73    59.96
           7 N7       9 C9      10 C10     13 H13       119.93   109.73   -59.96
--


            Nuclear Potential Energy            273.32816210 au

--- Stop Module: gateway at Tue Jul  9 12:23:07 2024 /rc=_RC_ALL_IS_WELL_ ---
*** files: 2-methylpyrimidine.RICDLib xmldump
    saved to directory /home/kenya/molcas_test/0702

--- Start Module: seward at Tue Jul  9 12:23:07 2024 ---

()()()()()()()()()()()()()()()()()()()()()()()()()()()()()()()()()()()()()()()()()()()()()()()()()()

                                              &SEWARD

                                   only a single process is used
                       available to each process: 2.0 GB of memory, 1 thread
                                            pid: 677032
()()()()()()()()()()()()()()()()()()()()()()()()()()()()()()()()()()()()()()()()()()()()()()()()()()

               SEWARD will generate:
                  Multipole Moment integrals up to order  2
                  Kinetic Energy integrals
                  Nuclear Attraction integrals (point charge)
                  One-Electron Hamiltonian integrals
                  Velocity integrals
                  Orbital angular momentum around (-0.9622 -0.7979  0.0000 )
                  Velocity quadrupole around (-0.9622 -0.7979  0.0000 )
                  RI decomposed two-electron repulsion integrals stored Cholesky style
                   - acCD auxiliary basis
                   - CD Threshold:   0.10E-03

                   Integrals are discarded if absolute value <: 1.00E-14
                   Integral cutoff threshold is set to       <: 1.00E-16

            Nuclear Potential Energy            273.32816210 au


      Basis set specifications :
      Symmetry species         a  
      Basis functions          117


      Input file to MOLDEN was generated!

--- Stop Module: seward at Tue Jul  9 12:23:09 2024 /rc=_RC_ALL_IS_WELL_ ---
*** files: 2-methylpyrimidine.GssOrb 2-methylpyrimidine.guessorb.molden xmldump
    saved to directory /home/kenya/molcas_test/0702
--- Module seward spent 2 seconds ---

*** symbolic link created: INPORB -> 2-methylpyrimidine.GssOrb
--- Start Module: scf at Tue Jul  9 12:23:09 2024 ---

()()()()()()()()()()()()()()()()()()()()()()()()()()()()()()()()()()()()()()()()()()()()()()()()()()

                                                &SCF

                                   only a single process is used
                       available to each process: 2.0 GB of memory, 1 thread
                                            pid: 677113
()()()()()()()()()()()()()()()()()()()()()()()()()()()()()()()()()()()()()()()()()()()()()()()()()()

++    Input section:
      --------------

      Header of the integral files:
      
       Integrals generated by Gateway/Seward, Tue Jul  9 12:23:07 2024


      Cartesian coordinates in Angstrom:
      -----------------------------------------------------
      No.  Label        X            Y            Z        
      -----------------------------------------------------
       1   C1        -1.02616000   1.13463000   0.00000000
       2   C2         0.36689000   1.18882000   0.00000000
       3   C3         1.07758000  -0.01066000   0.00000000
       4   H4         0.88448000   2.14006000   0.00000000
       5   N5        -1.65758000  -0.06842000   0.00000000
       6   H6        -1.60566000   2.04843000   0.00000000
       7   N7         0.40993000  -1.19424000   0.00000000
       8   H8         2.15965000  -0.00083000   0.00000000
       9   C9        -0.94984000  -1.23034000   0.00000000
      10   C10       -1.66054000  -2.54429000   0.00000000
      11   H11       -2.76136000  -2.39531000   0.00000000
      12   H12       -1.37872000  -3.12292000   0.90460000
      13   H13       -1.37872000  -3.12292000  -0.90460000
      -----------------------------------------------------
      Nuclear repulsion energy =  273.32816210
--

++    Orbital specifications:
      -----------------------

      Symmetry species               1
                                     a
      Frozen orbitals                0
      Occupied orbitals             25
      Secondary orbitals            92
      Deleted orbitals               0
      Total number of orbitals     117
      Number of basis functions    117
--

      Molecular charge                           0.000

++    Optimization specifications:
      ----------------------------

      SCF Algorithm: LK-RI/DF
      LK screening threshold:                     4.50E-02
      Local-Exchange (LK) algorithm.
       - the density matrix is decomposed
      The actual AO density is used
      Number of density matrices in core                 5
      Maximum number of NDDO SCF iterations            400
      Maximum number of HF SCF iterations              400
      Threshold for SCF energy change             1.00E-09
      Threshold for density matrix                1.00E-04
      Threshold for Fock matrix                   1.50E-04
      Threshold for linear dependence             1.00E-09
      Threshold at which DIIS is turned on        1.50E-01
      Maximum depth in the DIIS procedure                5
      Maximum depth in the BFGS Hessian update          30
      Threshold at which QNR/C2DIIS is turned on  7.50E-02
      Threshold for Norm(delta) (QNR/C2DIIS)      1.00E-03
      All orbitals punched on: SCFORB
--

      Input vectors read from INPORB
      Orbital file label: *Guess orbitals


++ Convergence information
                                   SCF        iterations: Energy and convergence statistics

Iter     Tot. SCF        One-elec.       Two-elec.     Energy      Max Dij or  Max Fij      DNorm      TNorm      AccCon     Time
         Energy          Energy          Energy        Change      Delta Norm                                                in Sec.
 IFG                   25               172575
 IFG                   25               172575
 IFG                   25               172575
 IFG                   25               172575
 IFG                   25               172575
 IFG                   25               172575
 IFG                   25               172575
 IFG                   25               172575
 IFG                   25               172575
 IFG                   25               172575
 IFG                   25               172575
 IFG                   25               172575
 IFG                   25               172575
 IFG                   25               172575
 IFG                   25               172575
 IFG                   25               172575
 IFG                   25               172575
 IFG                   25               172575
 IFG                   25               172575
 IFG                   25               172575
 IFG                    8                55224
   1  -300.852854256  -944.363867637   370.182851276   0.00E+00    4.84E-01*   1.79E-01*    7.74E+00   3.17E+02   None         0.
 IFG                   25               172575
 IFG                   25               172575
 IFG                   25               172575
 IFG                   25               172575
 IFG                   25               172575
 IFG                   25               172575
 IFG                   25               172575
 IFG                   25               172575
 IFG                   25               172575
 IFG                   25               172575
 IFG                   25               172575
 IFG                   25               172575
 IFG                   25               172575
 IFG                   25               172575
 IFG                   25               172575
 IFG                   25               172575
 IFG                   25               172575
 IFG                   25               172575
 IFG                   25               172575
 IFG                   25               172575
 IFG                    8                55224
   2  -301.522269452  -950.549372116   375.698940559  -6.69E-01*   3.65E-01*   1.03E-01*    7.91E+00   3.19E+02   EDIIS        0.
 IFG                   25               172575
 IFG                   25               172575
 IFG                   25               172575
 IFG                   25               172575
 IFG                   25               172575
 IFG                   25               172575
 IFG                   25               172575
 IFG                   25               172575
 IFG                   25               172575
 IFG                   25               172575
 IFG                   25               172575
 IFG                   25               172575
 IFG                   25               172575
 IFG                   25               172575
 IFG                   25               172575
 IFG                   25               172575
 IFG                   25               172575
 IFG                   25               172575
 IFG                   25               172575
 IFG                   25               172575
 IFG                    8                55224
   3  -301.642971829  -949.772255967   374.801122033  -1.21E-01*   1.48E-01*   5.51E-02*    7.91E+00   3.19E+02   EDIIS        0.
 IFG                   25               172575
 IFG                   25               172575
 IFG                   25               172575
 IFG                   25               172575
 IFG                   25               172575
 IFG                   25               172575
 IFG                   25               172575
 IFG                   25               172575
 IFG                   25               172575
 IFG                   25               172575
 IFG                   25               172575
 IFG                   25               172575
 IFG                   25               172575
 IFG                   25               172575
 IFG                   25               172575
 IFG                   25               172575
 IFG                   25               172575
 IFG                   25               172575
 IFG                   25               172575
 IFG                   25               172575
 IFG                    8                55224
   4  -301.708055901  -949.287597616   374.251379610  -6.51E-02*   1.79E-02*   1.94E-02*    7.91E+00   3.19E+02   c2DIIS       0.
 IFG                   25               172575
 IFG                   25               172575
 IFG                   25               172575
 IFG                   25               172575
 IFG                   25               172575
 IFG                   25               172575
 IFG                   25               172575
 IFG                   25               172575
 IFG                   25               172575
 IFG                   25               172575
 IFG                   25               172575
 IFG                   25               172575
 IFG                   25               172575
 IFG                   25               172575
 IFG                   25               172575
 IFG                   25               172575
 IFG                   25               172575
 IFG                   25               172575
 IFG                   25               172575
 IFG                   25               172575
 IFG                    8                55224
   5  -301.720799698  -949.731810964   374.682849160  -1.27E-02*   1.23E-02*   2.96E-03*    7.92E+00   3.19E+02   QNRc2DIIS    0.
 IFG                   25               172575
 IFG                   25               172575
 IFG                   25               172575
 IFG                   25               172575
 IFG                   25               172575
 IFG                   25               172575
 IFG                   25               172575
 IFG                   25               172575
 IFG                   25               172575
 IFG                   25               172575
 IFG                   25               172575
 IFG                   25               172575
 IFG                   25               172575
 IFG                   25               172575
 IFG                   25               172575
 IFG                   25               172575
 IFG                   25               172575
 IFG                   25               172575
 IFG                   25               172575
 IFG                   25               172575
 IFG                    8                55224
   6  -301.720950443  -949.601613392   374.552500844  -1.51E-04*   5.02E-03*   2.58E-03*    7.92E+00   3.19E+02   QNRc2DIIS    0.
 IFG                   25               172575
 IFG                   25               172575
 IFG                   25               172575
 IFG                   25               172575
 IFG                   25               172575
 IFG                   25               172575
 IFG                   25               172575
 IFG                   25               172575
 IFG                   25               172575
 IFG                   25               172575
 IFG                   25               172575
 IFG                   25               172575
 IFG                   25               172575
 IFG                   25               172575
 IFG                   25               172575
 IFG                   25               172575
 IFG                   25               172575
 IFG                   25               172575
 IFG                   25               172575
 IFG                   25               172575
 IFG                    8                55224
   7  -301.721027617  -949.641810278   374.592620557  -7.72E-05*   1.49E-03*   2.69E-04*    7.92E+00   3.19E+02   QNRc2DIIS    0.
 IFG                   25               172575
 IFG                   25               172575
 IFG                   25               172575
 IFG                   25               172575
 IFG                   25               172575
 IFG                   25               172575
 IFG                   25               172575
 IFG                   25               172575
 IFG                   25               172575
 IFG                   25               172575
 IFG                   25               172575
 IFG                   25               172575
 IFG                   25               172575
 IFG                   25               172575
 IFG                   25               172575
 IFG                   25               172575
 IFG                   25               172575
 IFG                   25               172575
 IFG                   25               172575
 IFG                   25               172575
 IFG                    8                55224
   8  -301.721030992  -949.656964874   374.607771777  -3.37E-06*   6.34E-04    1.69E-04*    7.92E+00   3.19E+02   QNRc2DIIS    0.
 IFG                   25               172575
 IFG                   25               172575
 IFG                   25               172575
 IFG                   25               172575
 IFG                   25               172575
 IFG                   25               172575
 IFG                   25               172575
 IFG                   25               172575
 IFG                   25               172575
 IFG                   25               172575
 IFG                   25               172575
 IFG                   25               172575
 IFG                   25               172575
 IFG                   25               172575
 IFG                   25               172575
 IFG                   25               172575
 IFG                   25               172575
 IFG                   25               172575
 IFG                   25               172575
 IFG                   25               172575
 IFG                    8                55224
   9  -301.721031540  -949.653960376   374.604766730  -5.49E-07*   5.00E-04    7.28E-05     7.92E+00   3.19E+02   QNRc2DIIS    0.
 IFG                   25               172575
 IFG                   25               172575
 IFG                   25               172575
 IFG                   25               172575
 IFG                   25               172575
 IFG                   25               172575
 IFG                   25               172575
 IFG                   25               172575
 IFG                   25               172575
 IFG                   25               172575
 IFG                   25               172575
 IFG                   25               172575
 IFG                   25               172575
 IFG                   25               172575
 IFG                   25               172575
 IFG                   25               172575
 IFG                   25               172575
 IFG                   25               172575
 IFG                   25               172575
 IFG                   25               172575
 IFG                    8                55224
  10  -301.721031725  -949.652514015   374.603320185  -1.85E-07*   1.46E-04    1.98E-05     7.92E+00   3.19E+02   QNRc2DIIS    0.
 IFG                   25               172575
 IFG                   25               172575
 IFG                   25               172575
 IFG                   25               172575
 IFG                   25               172575
 IFG                   25               172575
 IFG                   25               172575
 IFG                   25               172575
 IFG                   25               172575
 IFG                   25               172575
 IFG                   25               172575
 IFG                   25               172575
 IFG                   25               172575
 IFG                   25               172575
 IFG                   25               172575
 IFG                   25               172575
 IFG                   25               172575
 IFG                   25               172575
 IFG                   25               172575
 IFG                   25               172575
 IFG                    8                55224
  11  -301.721031739  -949.653738764   374.604544920  -1.40E-08*   2.59E-05    1.08E-05     7.92E+00   3.19E+02   QNRc2DIIS    0.
 IFG                   25               172575
 IFG                   25               172575
 IFG                   25               172575
 IFG                   25               172575
 IFG                   25               172575
 IFG                   25               172575
 IFG                   25               172575
 IFG                   25               172575
 IFG                   25               172575
 IFG                   25               172575
 IFG                   25               172575
 IFG                   25               172575
 IFG                   25               172575
 IFG                   25               172575
 IFG                   25               172575
 IFG                   25               172575
 IFG                   25               172575
 IFG                   25               172575
 IFG                   25               172575
 IFG                   25               172575
 IFG                    8                55224
  12  -301.721031742  -949.653488134   374.604294287  -2.57E-09*   1.11E-05    2.29E-06     7.92E+00   3.19E+02   QNRc2DIIS    0.
 IFG                   25               172575
 IFG                   25               172575
 IFG                   25               172575
 IFG                   25               172575
 IFG                   25               172575
 IFG                   25               172575
 IFG                   25               172575
 IFG                   25               172575
 IFG                   25               172575
 IFG                   25               172575
 IFG                   25               172575
 IFG                   25               172575
 IFG                   25               172575
 IFG                   25               172575
 IFG                   25               172575
 IFG                   25               172575
 IFG                   25               172575
 IFG                   25               172575
 IFG                   25               172575
 IFG                   25               172575
 IFG                    8                55224
  13  -301.721031742  -949.653400466   374.604206620  -1.58E-10    2.64E-06    7.86E-07     7.92E+00   3.19E+02   QNRc2DIIS    0.

       Convergence after  13 Macro Iterations
--

 *****************************************************************************************************************************
 *                                                                                                                           *
 *                                             SCF/KS-DFT Program, Final results                                             *
 *                                                                                                                           *
 *                                                                                                                           *
 *                                                                                                                           *
 *                                                       Final Results                                                       *
 *                                                                                                                           *
 *****************************************************************************************************************************

::    Total SCF energy                               -301.7210317419
      One-electron energy                            -949.6534004664
      Two-electron energy                             374.6042066196
      Nuclear repulsion energy                        273.3281621049
      Kinetic energy (interpolated)                   300.6781089707
      Virial theorem                                    1.0034685690
      Total spin, S(S+1)                                0.0000000000
      Total spin, S                                     0.0000000000
      Max non-diagonal density matrix element           0.0000029219
      Max non-diagonal Fock matrix element              0.0000001541


      All orbitals with orbital energies smaller than  E(LUMO)+0.5 are printed

++    Molecular orbitals:
      -------------------

      Title: SCF orbitals

      Molecular orbitals for symmetry species 1: a  

          Orbital            1         2         3         4         5         6         7         8         9        10    
          Energy          -15.5690  -15.5687  -11.3235  -11.2978  -11.2972  -11.2443  -11.2346   -1.2883   -1.1644   -1.0800
          Occ. No.          2.0000    2.0000    2.0000    2.0000    2.0000    2.0000    2.0000    2.0000    2.0000    2.0000

        1 C1     1s         0.0000    0.0000   -0.0003    0.0093    0.9956   -0.0115   -0.0000   -0.0672    0.0832    0.0878
        2 C1     2s         0.0003   -0.0000   -0.0003    0.0001    0.0270   -0.0005   -0.0001    0.1314   -0.1630   -0.1739
        3 C1     *s         0.0032   -0.0015    0.0038    0.0011   -0.0093    0.0063    0.0003    0.0176   -0.0853   -0.1250
        4 C1     2px       -0.0001    0.0000   -0.0001    0.0000   -0.0001   -0.0002   -0.0000   -0.0020    0.0435   -0.0794
        5 C1     *px        0.0010   -0.0004    0.0019    0.0008   -0.0018    0.0023    0.0000   -0.0101   -0.0008   -0.0205
        6 C1     2py       -0.0001    0.0000   -0.0001   -0.0001   -0.0006    0.0000    0.0000   -0.0688    0.0813   -0.0111
        7 C1     *py       -0.0018    0.0007   -0.0025   -0.0002   -0.0011   -0.0015   -0.0002    0.0247   -0.0138   -0.0020
        8 C1     2pz        0.0000   -0.0000    0.0000    0.0000    0.0000    0.0000   -0.0000   -0.0000   -0.0000   -0.0000
        9 C1     *pz        0.0000    0.0000   -0.0000    0.0000    0.0000   -0.0000   -0.0000   -0.0000   -0.0000   -0.0000
       10 C1     *200      -0.0001   -0.0000    0.0001    0.0001   -0.0008   -0.0003   -0.0000    0.0005    0.0004   -0.0077
       11 C1     *110      -0.0002    0.0000    0.0000   -0.0000    0.0002   -0.0001    0.0000    0.0049   -0.0089    0.0021
       12 C1     *101       0.0000    0.0000   -0.0000    0.0000   -0.0000    0.0000    0.0000    0.0000    0.0000    0.0000
       13 C1     *020      -0.0002    0.0000    0.0001    0.0000   -0.0008   -0.0001    0.0000    0.0063   -0.0086    0.0008
       14 C1     *011      -0.0000    0.0000    0.0000    0.0000   -0.0000    0.0000   -0.0000    0.0000    0.0000    0.0000
       15 C1     *002      -0.0001    0.0000   -0.0000   -0.0000   -0.0014   -0.0001   -0.0000   -0.0042    0.0051    0.0046
       16 C2     1s         0.0000   -0.0000   -0.0001    0.0109    0.0109    0.9955   -0.0000   -0.0453    0.0001    0.1307
       17 C2     2s         0.0001   -0.0001    0.0004    0.0003    0.0003    0.0281   -0.0000    0.0818   -0.0003   -0.2499
       18 C2     *s        -0.0022    0.0024   -0.0051    0.0029    0.0028   -0.0153    0.0001    0.0855   -0.0001   -0.1663
       19 C2     2px        0.0001    0.0000    0.0000   -0.0001    0.0002   -0.0002   -0.0000   -0.0195    0.0534    0.0245
       20 C2     *px        0.0008   -0.0006    0.0016    0.0020   -0.0019    0.0016    0.0001   -0.0176   -0.0040   -0.0034
       21 C2     2py       -0.0000   -0.0001    0.0000    0.0001   -0.0000   -0.0003    0.0000   -0.0359   -0.0289    0.0457
       22 C2     *py        0.0011   -0.0014    0.0030   -0.0009    0.0012    0.0029   -0.0000   -0.0318    0.0019   -0.0040
       23 C2     2pz        0.0000   -0.0000    0.0000    0.0000   -0.0000    0.0000    0.0000   -0.0000   -0.0000    0.0000
       24 C2     *pz       -0.0000    0.0000    0.0000   -0.0000   -0.0000   -0.0000    0.0000   -0.0000   -0.0000    0.0000
       25 C2     *200       0.0000   -0.0000   -0.0000   -0.0002   -0.0003   -0.0009   -0.0000    0.0027   -0.0035   -0.0056
       26 C2     *110      -0.0000   -0.0000    0.0000    0.0001    0.0001   -0.0001    0.0000   -0.0011   -0.0045    0.0016
       27 C2     *101       0.0000    0.0000   -0.0000    0.0000   -0.0000   -0.0000   -0.0000    0.0000   -0.0000   -0.0000
       28 C2     *020       0.0000    0.0000   -0.0000   -0.0002   -0.0002   -0.0010   -0.0000    0.0020    0.0035   -0.0046
       29 C2     *011      -0.0000   -0.0000   -0.0000   -0.0000   -0.0000    0.0000   -0.0000    0.0000   -0.0000    0.0000
       30 C2     *002       0.0000   -0.0000    0.0001   -0.0000   -0.0000   -0.0014   -0.0000   -0.0027   -0.0000    0.0059
       31 C3     1s        -0.0000   -0.0000   -0.0003    0.9956   -0.0094   -0.0113   -0.0000   -0.0673   -0.0829    0.0882
       32 C3     2s        -0.0000   -0.0003   -0.0004    0.0269   -0.0004   -0.0005   -0.0001    0.1315    0.1625   -0.1750
       33 C3     *s         0.0011   -0.0034    0.0039   -0.0093    0.0012    0.0063    0.0006    0.0173    0.0840   -0.1273
       34 C3     2px        0.0000    0.0000   -0.0000   -0.0004   -0.0000    0.0001   -0.0000   -0.0567   -0.0444    0.0339
       35 C3     *px       -0.0005    0.0022   -0.0032    0.0000   -0.0006   -0.0025   -0.0003    0.0263    0.0116    0.0094
       36 C3     2py        0.0000    0.0001   -0.0001   -0.0004   -0.0000   -0.0001   -0.0000   -0.0390   -0.0805   -0.0725
       37 C3     *py       -0.0000    0.0001    0.0003   -0.0020    0.0006    0.0011   -0.0005    0.0056    0.0087   -0.0155
       38 C3     2pz       -0.0000    0.0000    0.0000   -0.0000   -0.0000   -0.0000   -0.0000   -0.0000    0.0000   -0.0000
       39 C3     *pz        0.0000   -0.0000   -0.0000    0.0000    0.0000   -0.0000    0.0000   -0.0000    0.0000    0.0000
       40 C3     *200      -0.0000    0.0001    0.0001   -0.0009    0.0001   -0.0002    0.0000    0.0024    0.0019   -0.0027
       41 C3     *110      -0.0000    0.0002    0.0001    0.0001   -0.0001    0.0001    0.0000    0.0073    0.0118    0.0084
       42 C3     *101       0.0000   -0.0000    0.0000    0.0000    0.0000    0.0000   -0.0000    0.0000   -0.0000   -0.0000
       43 C3     *020       0.0000    0.0002    0.0001   -0.0007    0.0001   -0.0003    0.0000    0.0044    0.0063   -0.0043
       44 C3     *011      -0.0000    0.0000   -0.0000   -0.0000    0.0000   -0.0000   -0.0000   -0.0000    0.0000   -0.0000
       45 C3     *002      -0.0000    0.0001   -0.0000   -0.0014    0.0000   -0.0001   -0.0000   -0.0042   -0.0051    0.0046
       46 H4     1s        -0.0000    0.0000   -0.0001   -0.0001   -0.0001   -0.0003   -0.0000    0.0131   -0.0000   -0.0651
       47 H4     *s        -0.0003    0.0003   -0.0009   -0.0004   -0.0004    0.0012    0.0000    0.0084    0.0001   -0.0076
       48 N5     1s         0.9942   -0.0450   -0.0002    0.0001   -0.0003    0.0001   -0.0000   -0.1138    0.1324   -0.0246
       49 N5     2s         0.0249   -0.0012    0.0005    0.0002    0.0004    0.0002   -0.0001    0.2292   -0.2721    0.0522
       50 N5     *s        -0.0059    0.0013   -0.0023   -0.0025   -0.0006   -0.0026    0.0000    0.2560   -0.3055    0.0607
       51 N5     2px        0.0019   -0.0000    0.0000   -0.0000    0.0000    0.0000    0.0000    0.0818   -0.0599    0.0004
       52 N5     *px       -0.0027    0.0007   -0.0018   -0.0010   -0.0010   -0.0010    0.0003    0.0543   -0.0370    0.0041
       53 N5     2py        0.0001   -0.0001   -0.0000    0.0000    0.0001    0.0000    0.0001   -0.0117   -0.0351   -0.1047
       54 N5     *py        0.0003    0.0005   -0.0003    0.0006   -0.0013   -0.0003   -0.0001   -0.0015   -0.0038   -0.0365
       55 N5     2pz        0.0000   -0.0000   -0.0000    0.0000    0.0000   -0.0000   -0.0000    0.0000   -0.0000   -0.0000
       56 N5     *pz       -0.0000    0.0000    0.0000   -0.0000   -0.0000    0.0000    0.0000    0.0000   -0.0000    0.0000
       57 N5     *200      -0.0017    0.0001   -0.0001    0.0000   -0.0001    0.0001    0.0000    0.0019    0.0004   -0.0007
       58 N5     *110       0.0000   -0.0000    0.0001    0.0001   -0.0002    0.0000   -0.0001   -0.0023   -0.0044   -0.0118
       59 N5     *101       0.0000    0.0000    0.0000   -0.0000   -0.0000    0.0000   -0.0000    0.0000   -0.0000   -0.0000
       60 N5     *020      -0.0016    0.0000   -0.0002    0.0001   -0.0003    0.0001    0.0000    0.0043   -0.0051    0.0011
       61 N5     *011       0.0000    0.0000   -0.0000   -0.0000   -0.0000   -0.0000   -0.0000   -0.0000   -0.0000    0.0000
       62 N5     *002      -0.0018    0.0001    0.0002    0.0001    0.0001    0.0001   -0.0001   -0.0056    0.0052   -0.0004
       63 H6     1s         0.0000   -0.0000    0.0001   -0.0000   -0.0002   -0.0000   -0.0000    0.0191   -0.0347   -0.0456
       64 H6     *s         0.0005   -0.0001    0.0010    0.0003    0.0019    0.0003    0.0001   -0.0078    0.0010   -0.0091
       65 N7     1s        -0.0449   -0.9942   -0.0002   -0.0003    0.0001    0.0001   -0.0000   -0.1139   -0.1322   -0.0242
       66 N7     2s        -0.0011   -0.0249    0.0006    0.0004    0.0002    0.0002   -0.0002    0.2295    0.2717    0.0522
       67 N7     *s        -0.0008    0.0060   -0.0027   -0.0008   -0.0027   -0.0026    0.0008    0.2550    0.3053    0.0528
       68 N7     2px        0.0001    0.0009   -0.0000    0.0001    0.0000   -0.0000    0.0001   -0.0545   -0.0034   -0.0887
       69 N7     *px       -0.0001   -0.0017    0.0009   -0.0004    0.0012    0.0003   -0.0011   -0.0296   -0.0161   -0.0271
       70 N7     2py       -0.0001   -0.0016    0.0000    0.0000   -0.0000    0.0000    0.0001    0.0623    0.0689   -0.0571
       71 N7     *py       -0.0006    0.0022   -0.0016   -0.0014   -0.0004   -0.0009   -0.0004    0.0457    0.0340   -0.0132
       72 N7     2pz        0.0000   -0.0000   -0.0000    0.0000    0.0000    0.0000    0.0000    0.0000    0.0000    0.0000
       73 N7     *pz       -0.0000   -0.0000    0.0000   -0.0000   -0.0000   -0.0000   -0.0000    0.0000    0.0000   -0.0000
       74 N7     *200       0.0001    0.0016   -0.0002   -0.0002    0.0000    0.0001    0.0001    0.0046    0.0014    0.0060
       75 N7     *110       0.0001   -0.0001   -0.0000   -0.0002    0.0000    0.0000   -0.0000    0.0013    0.0068   -0.0033
       76 N7     *101       0.0000    0.0000   -0.0000    0.0000    0.0000    0.0000   -0.0000   -0.0000    0.0000   -0.0000
       77 N7     *020       0.0001    0.0016   -0.0001   -0.0003    0.0001    0.0001   -0.0000    0.0016    0.0033   -0.0053
       78 N7     *011      -0.0000   -0.0000   -0.0000    0.0000    0.0000    0.0000    0.0000    0.0000    0.0000    0.0000
       79 N7     *002       0.0001    0.0018    0.0002    0.0001    0.0001    0.0001   -0.0001   -0.0055   -0.0052   -0.0003
       80 H8     1s         0.0000   -0.0000    0.0001   -0.0002   -0.0000   -0.0000   -0.0000    0.0192    0.0346   -0.0458
       81 H8     *s         0.0001   -0.0005    0.0010    0.0019    0.0002    0.0003    0.0001   -0.0078   -0.0011   -0.0089
       82 C9     1s         0.0000   -0.0000    0.9958    0.0002    0.0002    0.0001   -0.0040   -0.1077   -0.0002   -0.0998
       83 C9     2s         0.0003   -0.0004    0.0263   -0.0002   -0.0002    0.0000    0.0001    0.2129    0.0002    0.2043
       84 C9     *s         0.0024   -0.0025   -0.0071    0.0009    0.0009    0.0010    0.0031    0.0443    0.0015    0.1179
       85 C9     2px       -0.0001   -0.0001    0.0002   -0.0000   -0.0000   -0.0000    0.0000    0.0374    0.1398   -0.0127
       86 C9     *px       -0.0004   -0.0021    0.0015    0.0005    0.0025    0.0006   -0.0022   -0.0107   -0.0188    0.0008
       87 C9     2py        0.0001   -0.0000    0.0004   -0.0001   -0.0001   -0.0000    0.0000    0.0681   -0.0763   -0.0239
       88 C9     *py        0.0021   -0.0010    0.0022    0.0029    0.0019    0.0010   -0.0022   -0.0228    0.0098   -0.0137
       89 C9     2pz       -0.0000    0.0000   -0.0000   -0.0000    0.0000   -0.0000   -0.0000    0.0000   -0.0000   -0.0000
       90 C9     *pz        0.0000   -0.0000   -0.0000    0.0000    0.0000   -0.0000    0.0000    0.0000   -0.0000    0.0000
       91 C9     *200      -0.0001    0.0002   -0.0006    0.0001    0.0001    0.0000   -0.0002    0.0065    0.0097    0.0041
       92 C9     *110       0.0002   -0.0000   -0.0001    0.0000   -0.0000    0.0000   -0.0002   -0.0045    0.0124   -0.0012
       93 C9     *101       0.0000   -0.0000    0.0000   -0.0000    0.0000   -0.0000    0.0000    0.0000    0.0000   -0.0000
       94 C9     *020      -0.0002    0.0000   -0.0007    0.0001    0.0001    0.0000   -0.0003    0.0036   -0.0097    0.0033
       95 C9     *011       0.0000    0.0000    0.0000    0.0000   -0.0000    0.0000    0.0000    0.0000   -0.0000    0.0000
       96 C9     *002      -0.0000    0.0000   -0.0013   -0.0000   -0.0000   -0.0000   -0.0001   -0.0072   -0.0000   -0.0056
       97 C10    1s        -0.0000    0.0000    0.0037    0.0000    0.0000   -0.0000    0.9958   -0.0230   -0.0002   -0.0731
       98 C10    2s        -0.0000    0.0000    0.0002   -0.0001   -0.0001   -0.0000    0.0285    0.0430    0.0004    0.1383
       99 C10    *s         0.0006   -0.0007    0.0030    0.0016    0.0019    0.0006   -0.0158    0.0202   -0.0005    0.1133
      100 C10    2px        0.0000   -0.0000   -0.0000    0.0001    0.0000    0.0000    0.0002    0.0141    0.0098    0.0240
      101 C10    *px        0.0004    0.0003    0.0005    0.0002    0.0001    0.0001   -0.0006    0.0001    0.0117   -0.0018
      102 C10    2py        0.0000   -0.0000   -0.0002    0.0001    0.0001    0.0000    0.0003    0.0260   -0.0051    0.0435
      103 C10    *py       -0.0001   -0.0003    0.0016    0.0006    0.0006    0.0002   -0.0012    0.0009   -0.0065    0.0038
      104 C10    2pz        0.0000    0.0000    0.0000    0.0000    0.0000   -0.0000   -0.0000   -0.0000   -0.0000   -0.0000
      105 C10    *pz        0.0000   -0.0000   -0.0000   -0.0000   -0.0000    0.0000   -0.0000   -0.0000   -0.0000   -0.0000
      106 C10    *200       0.0000    0.0000   -0.0001    0.0000   -0.0000   -0.0000   -0.0010    0.0005    0.0008    0.0017
      107 C10    *110       0.0000    0.0001   -0.0002    0.0000   -0.0000   -0.0000    0.0000    0.0036    0.0017    0.0038
      108 C10    *101       0.0000    0.0000    0.0000    0.0000   -0.0000    0.0000    0.0000   -0.0000    0.0000   -0.0000
      109 C10    *020      -0.0000   -0.0000   -0.0003   -0.0000    0.0000   -0.0000   -0.0011    0.0029   -0.0011    0.0042
      110 C10    *011      -0.0000   -0.0000    0.0000    0.0000   -0.0000    0.0000   -0.0000    0.0000   -0.0000    0.0000
      111 C10    *002      -0.0000    0.0000   -0.0000    0.0000    0.0000   -0.0000   -0.0010   -0.0002    0.0004    0.0010
      112 H11    1s         0.0000    0.0000   -0.0001   -0.0001   -0.0000   -0.0000    0.0002    0.0089   -0.0030    0.0379
      113 H11    *s         0.0000    0.0002   -0.0001   -0.0001   -0.0002   -0.0001    0.0024   -0.0001    0.0014    0.0017
      114 H12    1s        -0.0000   -0.0000   -0.0001   -0.0000   -0.0001   -0.0000    0.0002    0.0087    0.0017    0.0385
      115 H12    *s        -0.0001    0.0000    0.0004   -0.0000   -0.0000   -0.0000    0.0025    0.0002   -0.0005    0.0053
      116 H13    1s        -0.0000   -0.0000   -0.0001   -0.0000   -0.0001   -0.0000    0.0002    0.0087    0.0017    0.0385
      117 H13    *s        -0.0001    0.0000    0.0004   -0.0000   -0.0000   -0.0000    0.0025    0.0002   -0.0005    0.0053

          Orbital           11        12        13        14        15        16        17        18        19        20    
          Energy           -0.9755   -0.8863   -0.8369   -0.7064   -0.6919   -0.6306   -0.5946   -0.5926   -0.5682   -0.5397
          Occ. No.          2.0000    2.0000    2.0000    2.0000    2.0000    2.0000    2.0000    2.0000    2.0000    2.0000

        1 C1     1s        -0.0177    0.1112   -0.0535   -0.0193    0.0115    0.0486    0.0000    0.0150   -0.0060    0.0107
        2 C1     2s         0.0344   -0.2280    0.1113    0.0357   -0.0216   -0.1020   -0.0000   -0.0375    0.0114   -0.0251
        3 C1     *s         0.0444   -0.1993    0.0897    0.0781   -0.0310   -0.0863    0.0000    0.0049    0.0194   -0.0224
        4 C1     2px        0.0976   -0.0275   -0.1721   -0.1488   -0.1802   -0.0640   -0.0000   -0.2571   -0.0370   -0.0311
        5 C1     *px        0.0174   -0.0130   -0.0381   -0.0558   -0.0354   -0.0038   -0.0000   -0.1088   -0.0167   -0.0176
        6 C1     2py        0.0695   -0.0867   -0.0450    0.2149   -0.1962   -0.0868    0.0000    0.1890    0.1473    0.0920
        7 C1     *py        0.0035   -0.0485    0.0118    0.0846   -0.0689   -0.0662    0.0000    0.0903    0.0788    0.0444
        8 C1     2pz       -0.0000   -0.0000   -0.0000    0.0000   -0.0000   -0.0000    0.0930   -0.0000    0.0000    0.0000
        9 C1     *pz       -0.0000    0.0000    0.0000    0.0000   -0.0000   -0.0000    0.0543   -0.0000    0.0000    0.0000
       10 C1     *200       0.0055   -0.0052   -0.0030   -0.0011   -0.0043   -0.0015   -0.0000   -0.0016   -0.0041   -0.0006
       11 C1     *110      -0.0057    0.0062    0.0036   -0.0087    0.0127    0.0212   -0.0000   -0.0180   -0.0163   -0.0074
       12 C1     *101       0.0000   -0.0000    0.0000   -0.0000    0.0000   -0.0000    0.0005   -0.0000    0.0000    0.0000
       13 C1     *020      -0.0051   -0.0018    0.0071    0.0047    0.0042    0.0005    0.0000    0.0059    0.0069    0.0016
       14 C1     *011      -0.0000   -0.0000   -0.0000   -0.0000   -0.0000    0.0000   -0.0081    0.0000   -0.0000   -0.0000
       15 C1     *002      -0.0003    0.0050   -0.0031   -0.0006   -0.0007    0.0014    0.0000    0.0002   -0.0003    0.0005
       16 C2     1s        -0.0932   -0.0000    0.0863    0.0138    0.0004   -0.0416   -0.0000    0.0002    0.0277    0.0006
       17 C2     2s         0.1799    0.0002   -0.1668   -0.0277   -0.0008    0.0811    0.0000   -0.0002   -0.0571   -0.0014
       18 C2     *s         0.1401   -0.0002   -0.1714   -0.0219   -0.0011    0.0997    0.0000    0.0002   -0.0767   -0.0046
       19 C2     2px       -0.0002    0.1806   -0.0198    0.0957    0.2009    0.1624    0.0000    0.2309    0.0157    0.0330
       20 C2     *px        0.0070    0.0241   -0.0171    0.0359    0.0708    0.0990    0.0000    0.0940   -0.0052    0.0110
       21 C2     2py       -0.0000   -0.0983   -0.0364    0.1777   -0.1095    0.2931   -0.0000   -0.1297    0.0294   -0.0050
       22 C2     *py        0.0165   -0.0125   -0.0303    0.0662   -0.0398    0.1781    0.0000   -0.0528   -0.0097   -0.0017
       23 C2     2pz        0.0000   -0.0000    0.0000   -0.0000    0.0000   -0.0000    0.0723   -0.0000    0.0000    0.0000
       24 C2     *pz       -0.0000    0.0000   -0.0000    0.0000    0.0000   -0.0000    0.0417   -0.0000    0.0000    0.0000
       25 C2     *200       0.0035   -0.0057   -0.0015    0.0013   -0.0036   -0.0038   -0.0000   -0.0090    0.0013   -0.0023
       26 C2     *110      -0.0002   -0.0073   -0.0043    0.0007   -0.0047    0.0231   -0.0000   -0.0120   -0.0053   -0.0020
       27 C2     *101      -0.0000    0.0000    0.0000   -0.0000   -0.0000   -0.0000   -0.0024    0.0000   -0.0000   -0.0000
       28 C2     *020       0.0033    0.0057   -0.0042    0.0017    0.0036    0.0113    0.0000    0.0089   -0.0022    0.0025
       29 C2     *011       0.0000    0.0000   -0.0000    0.0000   -0.0000   -0.0000   -0.0045    0.0000   -0.0000   -0.0000
       30 C2     *002      -0.0040   -0.0000    0.0038    0.0007   -0.0000   -0.0017   -0.0000    0.0000    0.0005   -0.0000
       31 C3     1s        -0.0171   -0.1110   -0.0536   -0.0190   -0.0120    0.0485   -0.0000   -0.0156   -0.0061   -0.0104
       32 C3     2s         0.0333    0.2278    0.1113    0.0353    0.0228   -0.1018    0.0000    0.0387    0.0114    0.0254
       33 C3     *s         0.0400    0.2010    0.0891    0.0776    0.0284   -0.0855    0.0000   -0.0006    0.0207    0.0074
       34 C3     2px        0.0055    0.0581    0.0560    0.2612    0.0691   -0.0398   -0.0000   -0.2977    0.1433   -0.0953
       35 C3     *px       -0.0061    0.0333    0.0309    0.1016    0.0405   -0.0542   -0.0000   -0.1344    0.0741   -0.0470
       36 C3     2py        0.1203    0.0707   -0.1688   -0.0099    0.2579   -0.0967    0.0000    0.1166    0.0481   -0.0388
       37 C3     *py        0.0219    0.0366   -0.0242   -0.0018    0.0698   -0.0399    0.0000    0.0410    0.0277   -0.0029
       38 C3     2pz       -0.0000   -0.0000   -0.0000    0.0000    0.0000   -0.0000    0.0950   -0.0000    0.0000    0.0000
       39 C3     *pz        0.0000   -0.0000    0.0000   -0.0000    0.0000   -0.0000    0.0547   -0.0000    0.0000    0.0000
       40 C3     *200       0.0006    0.0056    0.0025    0.0070    0.0042   -0.0098   -0.0000   -0.0117    0.0111   -0.0045
       41 C3     *110      -0.0122   -0.0056    0.0106    0.0018   -0.0130    0.0104    0.0000    0.0003    0.0035    0.0021
       42 C3     *101      -0.0000    0.0000   -0.0000   -0.0000    0.0000    0.0000   -0.0072    0.0000   -0.0000   -0.0000
       43 C3     *020      -0.0004    0.0015    0.0016   -0.0034   -0.0042    0.0088    0.0000    0.0077   -0.0082    0.0030
       44 C3     *011       0.0000    0.0000   -0.0000   -0.0000   -0.0000   -0.0000   -0.0040    0.0000   -0.0000   -0.0000
       45 C3     *002      -0.0003   -0.0050   -0.0031   -0.0006    0.0007    0.0014    0.0000   -0.0002   -0.0003   -0.0004
       46 H4     1s         0.0657    0.0000   -0.0895    0.0971   -0.0004    0.2502    0.0000   -0.0025   -0.0116    0.0075
       47 H4     *s         0.0129   -0.0002   -0.0292    0.0607    0.0002    0.1510    0.0000   -0.0020    0.0049    0.0071
       48 N5     1s         0.0497   -0.0588   -0.0230   -0.0073   -0.0079   -0.0504   -0.0000   -0.0049    0.0196   -0.0142
       49 N5     2s        -0.1043    0.1260    0.0502    0.0187    0.0195    0.1131    0.0000    0.0114   -0.0442    0.0330
       50 N5     *s        -0.1272    0.1548    0.0725    0.0285    0.0101    0.1537    0.0000    0.0261   -0.0699    0.0448
       51 N5     2px       -0.0290   -0.0015   -0.0486   -0.1094    0.0093   -0.0596   -0.0000   -0.1471    0.1517   -0.0148
       52 N5     *px       -0.0176   -0.0027   -0.0203   -0.0554    0.0005   -0.0465   -0.0000   -0.0852    0.0966   -0.0082
       53 N5     2py       -0.0330   -0.1451    0.2099   -0.0587    0.2715    0.0547    0.0000   -0.0278   -0.1435   -0.1018
       54 N5     *py       -0.0125   -0.0700    0.0825   -0.0304    0.1242    0.0202   -0.0000   -0.0251   -0.0776   -0.0465
       55 N5     2pz       -0.0000    0.0000    0.0000    0.0000    0.0000   -0.0000    0.1592   -0.0000    0.0000    0.0000
       56 N5     *pz       -0.0000    0.0000   -0.0000    0.0000   -0.0000   -0.0000    0.1037   -0.0000    0.0000    0.0000
       57 N5     *200      -0.0009   -0.0013   -0.0037   -0.0062    0.0005   -0.0021   -0.0000   -0.0069    0.0068   -0.0014
       58 N5     *110      -0.0003   -0.0120    0.0171   -0.0080    0.0168    0.0017    0.0000   -0.0078   -0.0160   -0.0083
       59 N5     *101      -0.0000    0.0000   -0.0000    0.0000   -0.0000   -0.0000    0.0137   -0.0000    0.0000    0.0000
       60 N5     *020       0.0002    0.0005    0.0032    0.0046   -0.0002   -0.0012    0.0000    0.0040   -0.0035    0.0005
       61 N5     *011       0.0000   -0.0000   -0.0000   -0.0000   -0.0000    0.0000   -0.0033    0.0000   -0.0000    0.0000
       62 N5     *002       0.0017   -0.0014    0.0002    0.0020    0.0001    0.0005    0.0000    0.0016   -0.0018    0.0005
       63 H6     1s         0.0150   -0.1139    0.0700    0.1584   -0.0485   -0.0796    0.0000    0.1712    0.1072    0.0517
       64 H6     *s         0.0054   -0.0337    0.0242    0.0867   -0.0214   -0.0391    0.0000    0.1223    0.0799    0.0417
       65 N7     1s         0.0500    0.0588   -0.0230   -0.0075    0.0085   -0.0507   -0.0000    0.0051    0.0198    0.0167
       66 N7     2s        -0.1034   -0.1261    0.0504    0.0188   -0.0203    0.1131    0.0000   -0.0125   -0.0444   -0.0352
       67 N7     *s        -0.1391   -0.1551    0.0713    0.0303   -0.0128    0.1591   -0.0000   -0.0246   -0.0720   -0.0647
       68 N7     2px       -0.0131    0.1208    0.2024    0.0113   -0.2240    0.0740   -0.0000   -0.0572   -0.2029    0.0780
       69 N7     *px        0.0093    0.0560    0.0824    0.0040   -0.1002    0.0362    0.0000   -0.0298   -0.1184    0.0548
       70 N7     2py       -0.0433    0.0794    0.0728   -0.1231   -0.1544   -0.0211    0.0000    0.1356    0.0511    0.0883
       71 N7     *py       -0.0154    0.0386    0.0293   -0.0632   -0.0643   -0.0304    0.0000    0.0810    0.0384    0.0571
       72 N7     2pz        0.0000    0.0000    0.0000   -0.0000   -0.0000   -0.0000    0.1627   -0.0000    0.0000    0.0000
       73 N7     *pz       -0.0000    0.0000   -0.0000    0.0000   -0.0000   -0.0000    0.1083   -0.0000    0.0000    0.0000
       74 N7     *200      -0.0001   -0.0054   -0.0067    0.0051    0.0078   -0.0021   -0.0000   -0.0044    0.0068   -0.0036
       75 N7     *110       0.0007    0.0032    0.0132    0.0067   -0.0061    0.0014   -0.0000   -0.0068   -0.0161    0.0019
       76 N7     *101      -0.0000    0.0000    0.0000   -0.0000   -0.0000    0.0000   -0.0102    0.0000   -0.0000   -0.0000
       77 N7     *020      -0.0004    0.0060    0.0062   -0.0066   -0.0077   -0.0013    0.0000    0.0069   -0.0036    0.0062
       78 N7     *011       0.0000    0.0000    0.0000    0.0000   -0.0000    0.0000    0.0098   -0.0000    0.0000    0.0000
       79 N7     *002       0.0019    0.0014    0.0003    0.0019    0.0000    0.0005    0.0000   -0.0018   -0.0018    0.0001
       80 H8     1s         0.0148    0.1139    0.0701    0.1582    0.0503   -0.0806   -0.0000   -0.1702    0.1070   -0.0525
       81 H8     *s         0.0056    0.0337    0.0243    0.0865    0.0225   -0.0398   -0.0000   -0.1221    0.0800   -0.0410
       82 C9     1s        -0.0336   -0.0002    0.0893   -0.0454   -0.0005    0.0548    0.0000   -0.0000    0.0000   -0.0016
       83 C9     2s         0.0723    0.0006   -0.1930    0.0942    0.0004   -0.1216   -0.0000    0.0008    0.0037    0.0005
       84 C9     *s         0.0686   -0.0019   -0.1519    0.1135    0.0070   -0.1289   -0.0000   -0.0054   -0.0494    0.0284
       85 C9     2px       -0.0822   -0.1905   -0.0449   -0.0479    0.2314    0.0481   -0.0000   -0.0050    0.1769   -0.0749
       86 C9     *px        0.0002   -0.0087   -0.0054   -0.0202    0.0511    0.0105    0.0000   -0.0065    0.0776   -0.0312
       87 C9     2py       -0.1526    0.1033   -0.0829   -0.0867   -0.1263    0.0840   -0.0000    0.0020    0.3252    0.0389
       88 C9     *py       -0.0255    0.0058   -0.0137   -0.0344   -0.0293    0.0283    0.0000    0.0037    0.1424    0.0172
       89 C9     2pz       -0.0000    0.0000   -0.0000    0.0000   -0.0000   -0.0000    0.2093   -0.0000    0.0000    0.0000
       90 C9     *pz        0.0000   -0.0000    0.0000   -0.0000    0.0000    0.0000    0.1055   -0.0000    0.0000    0.0000
       91 C9     *200      -0.0025   -0.0072   -0.0048    0.0010    0.0037    0.0031    0.0000    0.0053    0.0041   -0.0085
       92 C9     *110       0.0123   -0.0092    0.0104   -0.0053    0.0049   -0.0086    0.0000    0.0066   -0.0122   -0.0089
       93 C9     *101      -0.0000    0.0000   -0.0000   -0.0000   -0.0000   -0.0000    0.0018   -0.0000    0.0000    0.0000
       94 C9     *020       0.0051    0.0071    0.0018   -0.0023   -0.0038   -0.0027   -0.0000   -0.0052   -0.0038    0.0079
       95 C9     *011      -0.0000   -0.0000    0.0000   -0.0000    0.0000    0.0000    0.0005   -0.0000    0.0000    0.0000
       96 C9     *002      -0.0012    0.0000    0.0049   -0.0015   -0.0000    0.0018    0.0000   -0.0001   -0.0014    0.0003
       97 C10    1s        -0.1558   -0.0005   -0.0755    0.0321    0.0007   -0.0110   -0.0000   -0.0001   -0.0041    0.0005
       98 C10    2s         0.2911    0.0005    0.1379   -0.0556   -0.0008    0.0172    0.0000   -0.0001   -0.0014   -0.0002
       99 C10    *s         0.2938    0.0037    0.1760   -0.1050   -0.0057    0.0328    0.0000    0.0034    0.0598   -0.0108
      100 C10    2px        0.0132   -0.0298   -0.0403    0.0637    0.0914   -0.0796   -0.0000   -0.0913   -0.1422    0.3687
      101 C10    *px       -0.0040   -0.0134   -0.0102    0.0227    0.0407   -0.0304   -0.0000   -0.0486   -0.0656    0.2121
      102 C10    2py        0.0217    0.0160   -0.0758    0.1216   -0.0473   -0.1401    0.0000    0.0492   -0.2702   -0.1912
      103 C10    *py        0.0017    0.0074   -0.0205    0.0417   -0.0214   -0.0593    0.0000    0.0262   -0.1178   -0.1101
      104 C10    2pz       -0.0000    0.0000   -0.0000    0.0000   -0.0000   -0.0000    0.3341   -0.0000    0.0000   -0.0000
      105 C10    *pz       -0.0000    0.0000   -0.0000    0.0000   -0.0000   -0.0000    0.1725   -0.0000   -0.0000   -0.0000
      106 C10    *200       0.0038   -0.0003    0.0027   -0.0019   -0.0022    0.0024    0.0000    0.0042    0.0031   -0.0196
      107 C10    *110      -0.0001   -0.0020   -0.0079    0.0092    0.0027   -0.0103    0.0000   -0.0006   -0.0161    0.0005
      108 C10    *101      -0.0000    0.0000   -0.0000    0.0000   -0.0000   -0.0000    0.0157   -0.0000    0.0000   -0.0000
      109 C10    *020       0.0037    0.0012   -0.0026    0.0042   -0.0008   -0.0047    0.0000   -0.0008   -0.0074    0.0052
      110 C10    *011       0.0000   -0.0000    0.0000   -0.0000    0.0000    0.0000   -0.0171    0.0000    0.0000    0.0000
      111 C10    *002       0.0044   -0.0009    0.0049   -0.0047    0.0030    0.0042   -0.0000   -0.0034    0.0074    0.0142
      112 H11    1s         0.0974    0.0149    0.0696   -0.0513   -0.0544    0.0479    0.0000    0.0619    0.0710   -0.2603
      113 H11    *s         0.0178    0.0048    0.0289   -0.0261   -0.0314    0.0383    0.0000    0.0465    0.0490   -0.2030
      114 H12    1s         0.0997   -0.0071    0.0700   -0.0532    0.0265    0.0427    0.1696   -0.0312    0.0729    0.1298
      115 H12    *s         0.0226   -0.0031    0.0278   -0.0283    0.0165    0.0318    0.1255   -0.0246    0.0563    0.1042
      116 H13    1s         0.0997   -0.0071    0.0700   -0.0532    0.0265    0.0427   -0.1696   -0.0312    0.0729    0.1298
      117 H13    *s         0.0226   -0.0031    0.0278   -0.0283    0.0165    0.0318   -0.1255   -0.0246    0.0563    0.1042

          Orbital           21        22        23        24        25        26        27        28        29        30    
          Energy           -0.5285   -0.4565   -0.4013   -0.3876   -0.3581    0.1074    0.1268    0.2487    0.2652    0.2860
          Occ. No.          2.0000    2.0000    2.0000    2.0000    2.0000    0.0000    0.0000    0.0000    0.0000    0.0000

        1 C1     1s        -0.0000   -0.0135   -0.0000   -0.0129    0.0000    0.0000    0.0000    0.0457   -0.0216    0.0611
        2 C1     2s         0.0000    0.0350   -0.0000    0.0324    0.0000   -0.0000   -0.0000   -0.0643    0.0220   -0.0740
        3 C1     *s        -0.0000    0.0131    0.0000    0.0532    0.0000   -0.0000   -0.0000   -0.7302    0.4635   -1.2836
        4 C1     2px        0.0000   -0.1383    0.0000   -0.1242    0.0000    0.0000   -0.0000    0.0826   -0.0447    0.1000
        5 C1     *px        0.0000   -0.0228    0.0000   -0.0198   -0.0000    0.0000    0.0000    0.3841   -0.0335    0.3777
        6 C1     2py       -0.0000   -0.1150   -0.0000   -0.0295   -0.0000    0.0000    0.0000   -0.1366    0.0018   -0.0927
        7 C1     *py       -0.0000   -0.0397   -0.0000    0.0411   -0.0000    0.0000    0.0000   -0.4056   -0.0552   -0.5611
        8 C1     2pz        0.1789    0.0000   -0.2362   -0.0000    0.1710   -0.3221   -0.1202   -0.0000   -0.0000    0.0000
        9 C1     *pz        0.1129    0.0000   -0.1792   -0.0000    0.1261   -0.5095   -0.2258   -0.0000   -0.0000    0.0000
       10 C1     *200       0.0000   -0.0089    0.0000   -0.0093    0.0000   -0.0000   -0.0000    0.0014    0.0003   -0.0044
       11 C1     *110       0.0000    0.0026    0.0000   -0.0166   -0.0000   -0.0000   -0.0000   -0.0172    0.0007    0.0060
       12 C1     *101       0.0050    0.0000    0.0067    0.0000    0.0220   -0.0069    0.0270    0.0000    0.0000   -0.0000
       13 C1     *020      -0.0000    0.0095   -0.0000    0.0129   -0.0000   -0.0000   -0.0000    0.0017   -0.0001    0.0063
       14 C1     *011      -0.0107    0.0000    0.0164    0.0000    0.0082   -0.0162    0.0148   -0.0000   -0.0000    0.0000
       15 C1     *002       0.0000   -0.0014    0.0000   -0.0008   -0.0000    0.0000   -0.0000    0.0003   -0.0001    0.0001
       16 C2     1s        -0.0000    0.0299   -0.0000    0.0001   -0.0000    0.0000   -0.0000    0.0460   -0.0018    0.0027
       17 C2     2s         0.0000   -0.0651    0.0000   -0.0000    0.0000   -0.0000   -0.0000   -0.0346    0.0064   -0.0068
       18 C2     *s         0.0000   -0.1189    0.0000   -0.0008    0.0000    0.0000    0.0000   -1.0536   -0.0327   -0.0272
       19 C2     2px       -0.0000    0.0934   -0.0000    0.1579   -0.0000   -0.0000    0.0000   -0.0999    0.0199   -0.0182
       20 C2     *px       -0.0000    0.0451   -0.0000    0.1402   -0.0000   -0.0000   -0.0000   -0.2626    0.1682   -0.4330
       21 C2     2py       -0.0000    0.1720    0.0000   -0.0857    0.0000    0.0000    0.0000   -0.1838    0.0327    0.0264
       22 C2     *py       -0.0000    0.0882    0.0000   -0.0745    0.0000   -0.0000   -0.0000   -0.4906    0.2081    0.2490
       23 C2     2pz        0.1739    0.0000    0.0043    0.0000    0.3433    0.0341    0.2816    0.0000    0.0000   -0.0000
       24 C2     *pz        0.1148    0.0000    0.0031    0.0000    0.3025    0.0622    0.5295    0.0000    0.0000   -0.0000
       25 C2     *200       0.0000   -0.0036    0.0000   -0.0024    0.0000   -0.0000   -0.0000   -0.0044   -0.0011   -0.0012
       26 C2     *110      -0.0000    0.0147   -0.0000   -0.0031   -0.0000   -0.0000   -0.0000    0.0157    0.0004   -0.0018
       27 C2     *101      -0.0051   -0.0000    0.0148    0.0000   -0.0058    0.0315   -0.0001    0.0000    0.0000   -0.0000
       28 C2     *020      -0.0000    0.0058   -0.0000    0.0024   -0.0000    0.0000   -0.0000    0.0060   -0.0017    0.0010
       29 C2     *011      -0.0092   -0.0000   -0.0082   -0.0000   -0.0100   -0.0161    0.0099    0.0000    0.0000   -0.0000
       30 C2     *002      -0.0000   -0.0003   -0.0000    0.0000   -0.0000   -0.0000   -0.0000    0.0017    0.0012   -0.0002
       31 C3     1s         0.0000   -0.0129    0.0000    0.0129    0.0000   -0.0000   -0.0000    0.0437   -0.0094   -0.0760
       32 C3     2s        -0.0000    0.0332    0.0000   -0.0325    0.0000    0.0000    0.0000   -0.0612   -0.0023    0.0991
       33 C3     *s        -0.0000    0.0079    0.0000   -0.0474    0.0000   -0.0000   -0.0000   -0.6896    0.2902    1.4917
       34 C3     2px        0.0000   -0.0177    0.0000   -0.0425   -0.0000   -0.0000   -0.0000   -0.1585    0.0148    0.1498
       35 C3     *px        0.0000   -0.0194    0.0000   -0.0471    0.0000    0.0000    0.0000   -0.5378   -0.1344    0.7466
       36 C3     2py        0.0000   -0.1757   -0.0000    0.1200   -0.0000   -0.0000   -0.0000   -0.0077   -0.0218   -0.0507
       37 C3     *py       -0.0000   -0.0325    0.0000   -0.0083    0.0000   -0.0000    0.0000    0.0753   -0.0876   -0.0050
       38 C3     2pz        0.1767    0.0000    0.2424    0.0000    0.1627    0.2883   -0.2003   -0.0000   -0.0000    0.0000
       39 C3     *pz        0.1125    0.0000    0.1844    0.0000    0.1186    0.4463   -0.3549   -0.0000   -0.0000    0.0000
       40 C3     *200       0.0000    0.0031    0.0000   -0.0139   -0.0000   -0.0000   -0.0000    0.0092   -0.0001    0.0000
       41 C3     *110      -0.0000    0.0178   -0.0000   -0.0134    0.0000    0.0000   -0.0000   -0.0070    0.0039   -0.0099
       42 C3     *101      -0.0116   -0.0000   -0.0104   -0.0000   -0.0047    0.0095   -0.0054   -0.0000   -0.0000    0.0000
       43 C3     *020      -0.0000   -0.0026   -0.0000    0.0105   -0.0000   -0.0000   -0.0000   -0.0060    0.0018   -0.0025
       44 C3     *011      -0.0015    0.0000   -0.0143   -0.0000    0.0233    0.0218    0.0249    0.0000    0.0000   -0.0000
       45 C3     *002      -0.0000   -0.0014   -0.0000    0.0008   -0.0000    0.0000    0.0000    0.0003   -0.0007    0.0001
       46 H4     1s        -0.0000    0.1193   -0.0000   -0.0000    0.0000    0.0000    0.0000    0.0288    0.0049    0.0031
       47 H4     *s        -0.0000    0.1296   -0.0000   -0.0005   -0.0000    0.0000    0.0000    1.3089   -0.2500   -0.0140
       48 N5     1s         0.0000    0.0550   -0.0000    0.0362   -0.0000   -0.0000   -0.0000    0.0011    0.0277   -0.0265
       49 N5     2s        -0.0000   -0.1218    0.0000   -0.0811    0.0000    0.0000    0.0000   -0.0063   -0.0396    0.0605
       50 N5     *s         0.0000   -0.2271    0.0000   -0.1156   -0.0000   -0.0000   -0.0000   -0.0236   -0.4242    0.1624
       51 N5     2px       -0.0000    0.3031   -0.0000    0.3990   -0.0000   -0.0000    0.0000   -0.0200    0.0145    0.0631
       52 N5     *px        0.0000    0.2326   -0.0000    0.3299   -0.0000    0.0000    0.0000   -0.1343   -0.1038   -0.0113
       53 N5     2py        0.0000    0.1459    0.0000   -0.0579    0.0000   -0.0000   -0.0000   -0.0227    0.0276    0.0100
       54 N5     *py        0.0000    0.0912    0.0000   -0.0574   -0.0000    0.0000    0.0000    0.0676    0.0364    0.1371
       55 N5     2pz        0.1943   -0.0000   -0.3235   -0.0000   -0.1673    0.2370   -0.1951    0.0000    0.0000   -0.0000
       56 N5     *pz        0.1330   -0.0000   -0.2676   -0.0000   -0.1451    0.3647   -0.2696    0.0000    0.0000   -0.0000
       57 N5     *200      -0.0000    0.0084   -0.0000    0.0100   -0.0000    0.0000    0.0000    0.0024   -0.0008    0.0044
       58 N5     *110       0.0000    0.0075    0.0000   -0.0038   -0.0000    0.0000    0.0000    0.0086    0.0047    0.0051
       59 N5     *101       0.0162    0.0000   -0.0210   -0.0000   -0.0109    0.0062   -0.0020    0.0000    0.0000   -0.0000
       60 N5     *020      -0.0000    0.0012   -0.0000    0.0010    0.0000   -0.0000   -0.0000   -0.0063    0.0018   -0.0096
       61 N5     *011       0.0031    0.0000   -0.0081   -0.0000    0.0149   -0.0198   -0.0265   -0.0000   -0.0000    0.0000
       62 N5     *002      -0.0000   -0.0040    0.0000   -0.0050    0.0000   -0.0000    0.0000   -0.0003    0.0042    0.0002
       63 H6     1s        -0.0000    0.0114   -0.0000    0.0792   -0.0000    0.0000    0.0000    0.0332   -0.0064    0.0102
       64 H6     *s        -0.0000    0.0190   -0.0000    0.0807   -0.0000    0.0000    0.0000    1.1310   -0.2567    1.3296
       65 N7     1s        -0.0000    0.0540    0.0000   -0.0361   -0.0000    0.0000   -0.0000    0.0025    0.0178    0.0331
       66 N7     2s         0.0000   -0.1172   -0.0000    0.0806    0.0000   -0.0000   -0.0000   -0.0131   -0.0212   -0.0801
       67 N7     *s         0.0000   -0.2432   -0.0000    0.1156   -0.0000    0.0000    0.0000   -0.0049   -0.3751   -0.1744
       68 N7     2px       -0.0000   -0.0487   -0.0000    0.2648   -0.0000   -0.0000    0.0000   -0.0028    0.0042    0.0052
       69 N7     *px       -0.0000   -0.0379   -0.0000    0.2219    0.0000   -0.0000   -0.0000    0.0974    0.0637   -0.1751
       70 N7     2py       -0.0000    0.3301    0.0000   -0.3028    0.0000    0.0000   -0.0000   -0.0303    0.0340   -0.0333
       71 N7     *py       -0.0000    0.2512    0.0000   -0.2495   -0.0000    0.0000    0.0000   -0.0976   -0.0996   -0.0633
       72 N7     2pz        0.1901    0.0000    0.3218    0.0000   -0.1749   -0.2815   -0.1149    0.0000    0.0000   -0.0000
       73 N7     *pz        0.1274    0.0000    0.2643    0.0000   -0.1498   -0.4147   -0.1575   -0.0000    0.0000   -0.0000
       74 N7     *200       0.0000    0.0000    0.0000   -0.0054    0.0000   -0.0000   -0.0000   -0.0071   -0.0031    0.0060
[...]
    91 C9     *200      -0.0011    0.0016   -0.0022    0.0013    0.0023    0.0035    0.0038    0.0000   -0.0061   -0.0000
    92 C9     *110       0.0123    0.0124    0.0072   -0.0054   -0.0062   -0.0062    0.0089    0.0000   -0.0128   -0.0000
    93 C9     *101      -0.0000    0.0000    0.0000   -0.0000    0.0000   -0.0000   -0.0000   -0.0048   -0.0000    0.0017
    94 C9     *020       0.0031   -0.0033   -0.0012   -0.0024   -0.0017   -0.0043   -0.0037   -0.0000    0.0060    0.0000
    95 C9     *011      -0.0000    0.0000    0.0000    0.0000   -0.0000    0.0000    0.0000   -0.0116   -0.0000    0.0057
    96 C9     *002      -0.0009    0.0026    0.0034   -0.0013    0.0015    0.0008    0.0001    0.0000   -0.0004    0.0000
    97 C10    1s        -0.1399   -0.0466   -0.0476    0.0309   -0.0058   -0.0169    0.0030   -0.0000    0.0009    0.0000
    98 C10    2s         0.2611    0.0858    0.0851   -0.0533    0.0099    0.0239   -0.0032    0.0000   -0.0040   -0.0000
    99 C10    *s         0.2638    0.1016    0.1240   -0.1017    0.0085    0.0810   -0.0195    0.0000    0.0062   -0.0000
   100 C10    2px        0.0131    0.0051   -0.0458    0.0620    0.0057   -0.2682   -0.0192   -0.0000    0.2941   -0.0000
   101 C10    *px       -0.0043    0.0082   -0.0188    0.0222    0.0100   -0.1269   -0.0135   -0.0000    0.1727   -0.0000
   102 C10    2py        0.0136   -0.0425   -0.1104    0.1160   -0.1017   -0.1551    0.1118    0.0000   -0.2707   -0.0000
   103 C10    *py       -0.0009   -0.0125   -0.0371    0.0395   -0.0453   -0.0584    0.0514    0.0000   -0.1432   -0.0000
   104 C10    2pz       -0.0000   -0.0000   -0.0000    0.0000   -0.0000    0.0000    0.0000    0.4356    0.0000   -0.0164
   105 C10    *pz       -0.0000   -0.0000   -0.0000    0.0000   -0.0000   -0.0000    0.0000    0.2460    0.0000   -0.0179
   106 C10    *200       0.0037    0.0015    0.0027   -0.0018   -0.0005    0.0092    0.0018    0.0000   -0.0172    0.0000
   107 C10    *110      -0.0000   -0.0027   -0.0077    0.0088   -0.0053   -0.0166    0.0044    0.0000   -0.0049   -0.0000
   108 C10    *101      -0.0000    0.0000    0.0000    0.0000   -0.0000   -0.0000    0.0000    0.0182    0.0000   -0.0014
   109 C10    *020       0.0029   -0.0017   -0.0041    0.0040   -0.0026   -0.0077    0.0017   -0.0000    0.0023   -0.0000
   110 C10    *011       0.0000    0.0000    0.0000   -0.0000    0.0000    0.0000   -0.0000   -0.0295   -0.0000   -0.0000
   111 C10    *002       0.0041    0.0032    0.0048   -0.0044    0.0041    0.0016   -0.0045   -0.0000    0.0157    0.0000
   112 H11    1s         0.0876    0.0273    0.0556   -0.0498   -0.0053    0.1673    0.0193    0.0000   -0.2193    0.0000
   113 H11    *s         0.0178    0.0093    0.0326   -0.0254    0.0010    0.1203    0.0163    0.0000   -0.1747    0.0000
   114 H12    1s         0.0912    0.0451    0.0607   -0.0508    0.0390    0.0230   -0.0434    0.2333    0.1445   -0.0058
   115 H12    *s         0.0211    0.0178    0.0273   -0.0271    0.0302    0.0136   -0.0334    0.1835    0.1172    0.0029
   116 H13    1s         0.0912    0.0451    0.0607   -0.0508    0.0390    0.0230   -0.0434   -0.2333    0.1445    0.0058
   117 H13    *s         0.0211    0.0178    0.0273   -0.0271    0.0302    0.0136   -0.0334   -0.1835    0.1172   -0.0029


      Orbital                21        22        23        24        25        26        27        28
      Energy            -0.4577   -0.4493   -0.7706    0.0000   -0.0000    0.0000   -0.0000    0.0000
      Occ. No.           2.0000    2.0000    1.9784    1.9274    1.9373    0.0728    0.0624    0.0217

     1 C1     1s        -0.0088   -0.0174   -0.0055   -0.0000   -0.0000    0.0000   -0.0000    0.0088
     2 C1     2s         0.0231    0.0425    0.0120   -0.0000    0.0000   -0.0000   -0.0000   -0.0156
     3 C1     *s        -0.0031    0.0560    0.0315    0.0000    0.0000    0.0000    0.0000    0.0072
     4 C1     2px       -0.0867   -0.1847   -0.0036   -0.0000   -0.0000    0.0000    0.0000    0.0031
     5 C1     *px       -0.0121   -0.0378    0.0102   -0.0000   -0.0000   -0.0000   -0.0000   -0.0191
     6 C1     2py       -0.1110   -0.0357   -0.0219    0.0000    0.0000   -0.0000   -0.0000    0.0233
     7 C1     *py       -0.0544    0.0391   -0.0008    0.0000    0.0000    0.0000    0.0000   -0.0105
     8 C1     2pz        0.0000   -0.0000    0.0000   -0.2258    0.0845   -0.3171   -0.1105   -0.0000
     9 C1     *pz        0.0000   -0.0000    0.0000   -0.1707    0.0810   -0.3296   -0.0662   -0.0000
    10 C1     *200      -0.0055   -0.0121   -0.0015   -0.0000   -0.0000   -0.0000   -0.0000    0.0030
    11 C1     *110       0.0082   -0.0170   -0.0024    0.0000   -0.0000    0.0000    0.0000    0.0014
    12 C1     *101       0.0000   -0.0000   -0.0000    0.0101    0.0106   -0.0124    0.0104    0.0000
    13 C1     *020       0.0049    0.0163    0.0024   -0.0000    0.0000   -0.0000   -0.0000   -0.0016
    14 C1     *011      -0.0000    0.0000   -0.0000    0.0184    0.0083   -0.0047    0.0095    0.0000
    15 C1     *002      -0.0010   -0.0014   -0.0002   -0.0000   -0.0000   -0.0000   -0.0000    0.0007
    16 C2     1s         0.0258    0.0166   -0.0056   -0.0000    0.0000   -0.0000   -0.0000   -0.0028
    17 C2     2s        -0.0563   -0.0358    0.0137   -0.0000   -0.0000   -0.0000   -0.0000    0.0078
    18 C2     *s        -0.1060   -0.0550   -0.0026    0.0000   -0.0000    0.0000    0.0000   -0.0326
    19 C2     2px        0.0380    0.1966    0.0159    0.0000    0.0000    0.0000   -0.0000   -0.0056
    20 C2     *px        0.0060    0.1402    0.0429    0.0000    0.0000    0.0000   -0.0000   -0.0244
    21 C2     2py        0.1883   -0.0309   -0.0255   -0.0000   -0.0000    0.0000   -0.0000   -0.0052
    22 C2     *py        0.1077   -0.0490   -0.0072   -0.0000   -0.0000    0.0000   -0.0000    0.0296
    23 C2     2pz        0.0000   -0.0000   -0.0000    0.0603    0.1333   -0.0469    0.0992    0.0000
    24 C2     *pz        0.0000   -0.0000   -0.0000    0.0567    0.1346   -0.0464    0.0824    0.0000
    25 C2     *200      -0.0029   -0.0030   -0.0006    0.0000   -0.0000    0.0000    0.0000   -0.0009
    26 C2     *110       0.0158   -0.0008    0.0007   -0.0000   -0.0000   -0.0000   -0.0000    0.0001
    27 C2     *101      -0.0000    0.0000   -0.0000    0.0150   -0.0055    0.0252    0.0053   -0.0000
    28 C2     *020       0.0051    0.0034    0.0006    0.0000    0.0000   -0.0000   -0.0000    0.0012
    29 C2     *011      -0.0000    0.0000    0.0000   -0.0097    0.0008   -0.0117   -0.0084    0.0000
    30 C2     *002      -0.0002   -0.0000    0.0003    0.0000   -0.0000    0.0000    0.0000   -0.0001
    31 C3     1s        -0.0182    0.0145   -0.0154   -0.0000   -0.0000   -0.0000   -0.0000   -0.0100
    32 C3     2s         0.0455   -0.0339    0.0336    0.0000   -0.0000    0.0000    0.0000    0.0211
    33 C3     *s         0.0244   -0.0505    0.0591   -0.0000    0.0000   -0.0000   -0.0000    0.0273
    34 C3     2px       -0.0274    0.0098   -0.0284   -0.0000   -0.0000    0.0000    0.0000   -0.0375
    35 C3     *px       -0.0194   -0.0135   -0.0548   -0.0000   -0.0000   -0.0000    0.0000   -0.0410
    36 C3     2py       -0.2251    0.1276   -0.0473    0.0000    0.0000    0.0000   -0.0000   -0.0239
    37 C3     *py       -0.0396    0.0103   -0.0402   -0.0000    0.0000   -0.0000   -0.0000    0.0405
    38 C3     2pz        0.0000   -0.0000   -0.0000    0.2599   -0.0582    0.3563    0.0945   -0.0000
    39 C3     *pz        0.0000   -0.0000   -0.0000    0.2053   -0.0267    0.3131    0.1262   -0.0000
    40 C3     *200       0.0044   -0.0060   -0.0098   -0.0000   -0.0000   -0.0000   -0.0000   -0.0041
    41 C3     *110       0.0204   -0.0065   -0.0089   -0.0000   -0.0000    0.0000    0.0000   -0.0078
    42 C3     *101      -0.0000    0.0000    0.0000   -0.0085    0.0071   -0.0022    0.0006   -0.0000
    43 C3     *020      -0.0032    0.0037    0.0078   -0.0000   -0.0000    0.0000    0.0000    0.0002
    44 C3     *011       0.0000   -0.0000   -0.0000   -0.0058    0.0214    0.0012    0.0197    0.0000
    45 C3     *002      -0.0017    0.0008   -0.0007   -0.0000   -0.0000    0.0000    0.0000   -0.0017
    46 H4     1s         0.1154    0.0307   -0.0026   -0.0000   -0.0000   -0.0000   -0.0000   -0.0014
    47 H4     *s         0.1224    0.0385   -0.0088    0.0000   -0.0000   -0.0000    0.0000   -0.0025
    48 N5     1s         0.0378    0.0611   -0.0107   -0.0000   -0.0000   -0.0000    0.0000    0.0109
    49 N5     2s        -0.0836   -0.1362    0.0250   -0.0000    0.0000   -0.0000   -0.0000   -0.0208
    50 N5     *s        -0.1681   -0.2138    0.0417    0.0000    0.0000    0.0000    0.0000   -0.0901
    51 N5     2px        0.1702    0.4756    0.0832   -0.0000    0.0000   -0.0000    0.0000   -0.0949
    52 N5     *px        0.1290    0.3769    0.0867    0.0000    0.0000    0.0000    0.0000   -0.1274
    53 N5     2py        0.1533    0.0018   -0.0484   -0.0000   -0.0000    0.0000   -0.0000    0.0464
    54 N5     *py        0.1024   -0.0195   -0.0443   -0.0000   -0.0000    0.0000   -0.0000    0.0010
    55 N5     2pz        0.0000   -0.0000    0.0000   -0.3925   -0.1790    0.5390   -0.2474    0.0000
    56 N5     *pz        0.0000   -0.0000    0.0000   -0.2976   -0.1199    0.2575   -0.1658    0.0000
    57 N5     *200       0.0043    0.0135   -0.0007   -0.0000    0.0000   -0.0000   -0.0000    0.0019
    58 N5     *110       0.0093   -0.0035    0.0026   -0.0000   -0.0000   -0.0000    0.0000   -0.0061
    59 N5     *101       0.0000   -0.0000    0.0000   -0.0246   -0.0140    0.0138   -0.0024   -0.0000
    60 N5     *020       0.0015   -0.0002    0.0025    0.0000    0.0000   -0.0000    0.0000    0.0004
    61 N5     *011       0.0000   -0.0000   -0.0000   -0.0048    0.0137   -0.0115   -0.0236   -0.0000
    62 N5     *002      -0.0024   -0.0060   -0.0012    0.0000   -0.0000    0.0000    0.0000    0.0031
    63 H6     1s        -0.0208    0.1013    0.0053    0.0000    0.0000    0.0000   -0.0000   -0.0038
    64 H6     *s        -0.0113    0.0974    0.0115   -0.0000    0.0000   -0.0000   -0.0000   -0.0096
    65 N7     1s         0.0631   -0.0234    0.0724    0.0000   -0.0000   -0.0000    0.0000    0.1021
    66 N7     2s        -0.1363    0.0494   -0.1483    0.0000    0.0000    0.0000   -0.0000   -0.4663
    67 N7     *s        -0.2650    0.0430   -0.1370   -0.0000    0.0000   -0.0000    0.0000   -0.4616
    68 N7     2px       -0.0431    0.0291    0.4508    0.0000    0.0000    0.0000    0.0000    0.7878
    69 N7     *px       -0.0535    0.0767    0.2504   -0.0000    0.0000   -0.0000   -0.0000    0.2098
    70 N7     2py        0.3951   -0.1770   -0.0771   -0.0000   -0.0000   -0.0000    0.0000   -0.0811
    71 N7     *py        0.3023   -0.1367   -0.1024   -0.0000   -0.0000   -0.0000    0.0000    0.0436
    72 N7     2pz        0.0000    0.0000    0.0000    0.2182   -0.3845   -0.2729   -0.5905    0.0000
    73 N7     *pz       -0.0000    0.0000    0.0000    0.1656   -0.2710   -0.0932   -0.2049    0.0000
    74 N7     *200      -0.0010    0.0016   -0.0139    0.0000   -0.0000    0.0000    0.0000   -0.0106
    75 N7     *110      -0.0021   -0.0026    0.0177    0.0000    0.0000   -0.0000    0.0000    0.0344
    76 N7     *101       0.0000   -0.0000    0.0000    0.0032    0.0219    0.0311    0.0055   -0.0000
    77 N7     *020       0.0124   -0.0064    0.0063    0.0000   -0.0000   -0.0000    0.0000    0.0406
    78 N7     *011       0.0000   -0.0000    0.0000    0.0174   -0.0175    0.0030   -0.0231    0.0000
    79 N7     *002      -0.0042    0.0015    0.0073    0.0000   -0.0000    0.0000    0.0000    0.0174
    80 H8     1s         0.0179   -0.0286   -0.0344   -0.0000   -0.0000   -0.0000   -0.0000   -0.0188
    81 H8     *s         0.0273   -0.0310   -0.0464   -0.0000   -0.0000    0.0000   -0.0000    0.0011
    82 C9     1s        -0.0346   -0.0296    0.0872    0.0000    0.0000    0.0000   -0.0000   -0.1184
    83 C9     2s         0.0857    0.0675   -0.1855   -0.0000   -0.0000   -0.0000    0.0000    0.5322
    84 C9     *s         0.0890    0.0178   -0.0816   -0.0000   -0.0000   -0.0000    0.0000    0.4868
    85 C9     2px       -0.0458    0.0000   -0.3846   -0.0000   -0.0000    0.0000    0.0000    0.7531
    86 C9     *px       -0.0130    0.0654   -0.0386   -0.0000    0.0000   -0.0000   -0.0000    0.2732
    87 C9     2py       -0.1170    0.1401   -0.0198    0.0000    0.0000    0.0000   -0.0000    0.0491
    88 C9     *py       -0.0410    0.0248   -0.0379   -0.0000    0.0000    0.0000   -0.0000    0.0895
    89 C9     2pz       -0.0000    0.0000    0.0000   -0.1043   -0.3624   -0.1726    0.5893   -0.0000
    90 C9     *pz       -0.0000    0.0000    0.0000   -0.0687   -0.2426   -0.1525    0.3647   -0.0000
    91 C9     *200      -0.0081   -0.0053   -0.0175   -0.0000   -0.0000   -0.0000    0.0000    0.0230
    92 C9     *110       0.0344   -0.0029   -0.0078   -0.0000    0.0000   -0.0000   -0.0000    0.0310
    93 C9     *101       0.0000    0.0000    0.0000    0.0197   -0.0169   -0.0231    0.0208   -0.0000
    94 C9     *020       0.0090    0.0071    0.0141   -0.0000   -0.0000   -0.0000   -0.0000   -0.0492
    95 C9     *011      -0.0000   -0.0000   -0.0000   -0.0172   -0.0121    0.0072    0.0154    0.0000
    96 C9     *002       0.0004   -0.0016    0.0055   -0.0000   -0.0000   -0.0000   -0.0000   -0.0129
    97 C10    1s        -0.0203   -0.0009   -0.0139   -0.0000    0.0000   -0.0000    0.0000    0.0112
    98 C10    2s         0.0416   -0.0013    0.0273    0.0000   -0.0000   -0.0000   -0.0000   -0.0279
    99 C10    *s         0.0896    0.0400    0.0364   -0.0000    0.0000    0.0000   -0.0000    0.0038
   100 C10    2px        0.1081   -0.1105    0.0338   -0.0000   -0.0000    0.0000    0.0000   -0.0363
   101 C10    *px        0.0438   -0.0775    0.0229   -0.0000    0.0000    0.0000   -0.0000   -0.0313
   102 C10    2py        0.1704    0.0062    0.0466    0.0000    0.0000   -0.0000   -0.0000   -0.0344
   103 C10    *py        0.0917    0.0185    0.0310    0.0000    0.0000    0.0000   -0.0000   -0.0009
   104 C10    2pz       -0.0000   -0.0000   -0.0000    0.0077    0.0222    0.0142   -0.0417   -0.0000
   105 C10    *pz       -0.0000   -0.0000   -0.0000   -0.0006    0.0439    0.0247   -0.0985    0.0000
   106 C10    *200      -0.0032    0.0043   -0.0035    0.0000    0.0000    0.0000    0.0000    0.0054
   107 C10    *110       0.0109   -0.0028   -0.0023   -0.0000   -0.0000   -0.0000    0.0000    0.0034
   108 C10    *101      -0.0000    0.0000   -0.0000    0.0004   -0.0032   -0.0002    0.0008   -0.0000
   109 C10    *020       0.0047   -0.0016    0.0025   -0.0000   -0.0000   -0.0000    0.0000   -0.0015
   110 C10    *011      -0.0000    0.0000    0.0000   -0.0045   -0.0132   -0.0053    0.0138    0.0000
   111 C10    *002      -0.0027   -0.0023   -0.0001   -0.0000    0.0000   -0.0000   -0.0000   -0.0008
   112 H11    1s        -0.0458    0.0702   -0.0187    0.0000    0.0000    0.0000    0.0000    0.0234
   113 H11    *s        -0.0672    0.0292   -0.0335    0.0000    0.0000   -0.0000   -0.0000    0.0366
   114 H12    1s        -0.0265   -0.0202    0.0031    0.0114    0.0318    0.0156   -0.0407   -0.0066
   115 H12    *s        -0.0428   -0.0142    0.0045    0.0243    0.0411    0.0271   -0.0298   -0.0092
   116 H13    1s        -0.0265   -0.0202    0.0031   -0.0114   -0.0318   -0.0156    0.0407   -0.0066
   117 H13    *s        -0.0428   -0.0142    0.0045   -0.0243   -0.0411   -0.0271    0.0298   -0.0092
--

      Von Neumann Entropy (Root   1) =  0.51232


      Mulliken population analysis for root number:  1
      -----------------------------------------------


++    Molecular charges:
      ------------------

      Mulliken charges per centre and basis function type
      ---------------------------------------------------

                C1      C2      C3      H4      N5      H6      N7      H8      C9      C10     H11     H12   
      1s       1.9966  1.9966  1.9966  0.5229  1.9961  0.5278  1.9960  0.5276  1.9965  1.9966  0.5115  0.5121
      2s       0.6793  0.6655  0.6794  0.0000  0.7852  0.0000  0.7858  0.0000  0.6901  0.6255  0.0000  0.0000
      2px      0.7463  0.7453  0.7416  0.0000  0.9856  0.0000  0.8197  0.0000  0.6967  0.6929  0.0000  0.0000
      2pz      0.4846  0.5329  0.4861  0.0000  0.6268  0.0000  0.6386  0.0000  0.5156  0.6930  0.0000  0.0000
      2py      0.7136  0.7346  0.7184  0.0000  0.7500  0.0000  0.9151  0.0000  0.7141  0.6744  0.0000  0.0000
      *s       0.4404  0.5170  0.4401  0.2641  0.9336  0.2535  0.9371  0.2528  0.3281  0.6704  0.2911  0.2991
      *px      0.1799  0.2058  0.2746  0.0000  0.6423  0.0000  0.3451  0.0000  0.0353  0.3796  0.0000  0.0000
      *pz      0.4085  0.4993  0.4065  0.0000  0.4995  0.0000  0.4900  0.0000  0.3480  0.4171  0.0000  0.0000
      *py      0.2002  0.3304  0.1084  0.0000  0.2866  0.0000  0.5503  0.0000  0.1122  0.2904  0.0000  0.0000
      *200     0.0236  0.0221  0.0380  0.0000 -0.0067  0.0000  0.0160  0.0000  0.0280  0.0211  0.0000  0.0000
      *110     0.0242  0.0157  0.0201  0.0000  0.0180  0.0000  0.0072  0.0000  0.0317  0.0081  0.0000  0.0000
      *101     0.0071  0.0051  0.0035  0.0000  0.0060  0.0000  0.0061  0.0000  0.0097  0.0034  0.0000  0.0000
      *020     0.0359  0.0290  0.0255  0.0000  0.0199  0.0000  0.0051  0.0000  0.0295  0.0127  0.0000  0.0000
      *011     0.0057  0.0037  0.0094  0.0000  0.0059  0.0000  0.0061  0.0000  0.0085  0.0125  0.0000  0.0000
      *002    -0.0203 -0.0182 -0.0202  0.0000 -0.0112  0.0000 -0.0113  0.0000 -0.0201  0.0214  0.0000  0.0000
      Total    5.9256  6.2850  5.9278  0.7870  7.5376  0.7813  7.5071  0.7804  5.5238  6.5193  0.8026  0.8112

      N-E      0.0744 -0.2850  0.0722  0.2130 -0.5376  0.2187 -0.5071  0.2196  0.4762 -0.5193  0.1974  0.1888

                H13   
      1s       0.5121
      2s       0.0000
      2px      0.0000
      2pz      0.0000
      2py      0.0000
      *s       0.2991
      *px      0.0000
      *pz      0.0000
      *py      0.0000
      *200     0.0000
      *110     0.0000
      *101     0.0000
      *020     0.0000
      *011     0.0000
      *002     0.0000
      Total    0.8112

      N-E      0.1888

      Total electronic charge=   50.000000

      Total            charge=   -0.000000
--



      Expectation values of various properties for root number:  1
      -----------------------------------------------------------


++    Molecular properties:
      ---------------------

      Charge (e):
                      =   -0.0000
      Dipole Moment (Debye):
      Origin of the operator (Ang)=    0.0000    0.0000    0.0000
                   X=  8.6624E-01               Y=  1.4923E+00               Z= -2.8149E-14           Total=  1.7255E+00
      Quadrupole Moment (Debye*Ang):
      Origin of the operator (Ang)=   -0.5092   -0.4222    0.0000
                  XX= -4.1261E+01              XY=  4.2886E+00              XZ=  4.1737E-14              YY= -3.5841E+01
                  YZ=  1.9278E-13              ZZ= -4.2341E+01
      In traceless form (Debye*Ang)
                  XX= -2.1707E+00              XY=  6.4329E+00              XZ=  6.2606E-14              YY=  5.9600E+00
                  YZ=  2.8918E-13              ZZ= -3.7894E+00
--


      Input file to MOLDEN was generated!

      Average orbitals are written to the RASORB file
      Natural orbitals for root   1 are written to the RASORB.1 file
      Spin density orbitals for root   1 are written to the SPDORB.1 file

--- Stop Module: rasscf at Tue Jul  9 12:23:28 2024 /rc=_RC_ALL_IS_WELL_ ---
*** files: 2-methylpyrimidine.rasscf.molden 2-methylpyrimidine.RasOrb.1 2-methylpyrimidine.RasOrb 2-methylpyrimidine.SpdOrb.1 xmldump
    saved to directory /home/kenya/molcas_test/0702
--- Module rasscf spent 13 seconds ---

.##################.
.# Happy landing! #.
.##################.

    Timing: Wall=21.82 User=21.16 System=0.56
