[Molden Format]
[N_Atoms]
                   13
[Atoms] (AU)
C1          1      6          -1.93916136      2.14413995      0.00000000
C2          2      6           0.69332162      2.24654421      0.00000000
C3          3      6           2.03633108     -0.02014448      0.00000000
H4          4      1           1.67142496      4.04412729      0.00000000
N5          5      7          -3.13237223     -0.12929506      0.00000000
H6          6      1          -3.03425765      3.87097169      0.00000000
N7          7      7           0.77465543     -2.25678653      0.00000000
H8          8      1           4.08114703     -0.00156847      0.00000000
C9          9      6          -1.79493746     -2.32500564      0.00000000
C10        10      6          -3.13796582     -4.80801128      0.00000000
H11        11      1          -5.21821413     -4.52647988      0.00000000
H12        12      1          -2.60540320     -5.90146351      1.70944625
H13        13      1          -2.60540320     -5.90146351     -1.70944625
[Charge] (Mulliken)
   7.4405145831843100E-002
 -0.28497312355171189     
   7.2186040269858864E-002
  0.21296448295725856     
 -0.53764837257039844     
  0.21870390771873160     
 -0.50711499599572463     
  0.21959595831444334     
  0.47620314011194065     
 -0.51930900817968162     
  0.19737771269904114     
  0.18880455619644465     
  0.18880455619650038     
[GTO] (AU)
   1
   s   6
  3.047524880E+03  1.834737132E-03
  4.573695180E+02  1.403732281E-02
  1.039486850E+02  6.884262227E-02
  2.921015530E+01  2.321844432E-01
  9.286662960E+00  4.679413484E-01
  3.163926960E+00  3.623119853E-01
   s   3
  7.868272350E+00 -1.193324198E-01
  1.881288540E+00 -1.608541517E-01
  5.442492580E-01  1.143456438E+00
   s   1
  1.687144782E-01  1.000000000E+00
   p   3
  7.868272350E+00  6.899906659E-02
  1.881288540E+00  3.164239610E-01
  5.442492580E-01  7.443082909E-01
   p   1
  1.687144782E-01  1.000000000E+00
   d   1
  8.000000000E-01  1.000000000E+00
 
   2
   s   6
  3.047524880E+03  1.834737132E-03
  4.573695180E+02  1.403732281E-02
  1.039486850E+02  6.884262227E-02
  2.921015530E+01  2.321844432E-01
  9.286662960E+00  4.679413484E-01
  3.163926960E+00  3.623119853E-01
   s   3
  7.868272350E+00 -1.193324198E-01
  1.881288540E+00 -1.608541517E-01
  5.442492580E-01  1.143456438E+00
   s   1
  1.687144782E-01  1.000000000E+00
   p   3
  7.868272350E+00  6.899906659E-02
  1.881288540E+00  3.164239610E-01
  5.442492580E-01  7.443082909E-01
   p   1
  1.687144782E-01  1.000000000E+00
   d   1
  8.000000000E-01  1.000000000E+00
 
   3
   s   6
  3.047524880E+03  1.834737132E-03
  4.573695180E+02  1.403732281E-02
  1.039486850E+02  6.884262227E-02
  2.921015530E+01  2.321844432E-01
  9.286662960E+00  4.679413484E-01
  3.163926960E+00  3.623119853E-01
   s   3
  7.868272350E+00 -1.193324198E-01
  1.881288540E+00 -1.608541517E-01
  5.442492580E-01  1.143456438E+00
   s   1
  1.687144782E-01  1.000000000E+00
   p   3
  7.868272350E+00  6.899906659E-02
  1.881288540E+00  3.164239610E-01
  5.442492580E-01  7.443082909E-01
   p   1
  1.687144782E-01  1.000000000E+00
   d   1
  8.000000000E-01  1.000000000E+00
 
   4
   s   3
  1.873113696E+01  3.349460434E-02
  2.825394365E+00  2.347269535E-01
  6.401216923E-01  8.137573261E-01
   s   1
  1.612777588E-01  1.000000000E+00
 
   5
   s   6
  4.173511460E+03  1.834772160E-03
  6.274579110E+02  1.399462700E-02
  1.429020930E+02  6.858655181E-02
  4.023432930E+01  2.322408730E-01
  1.282021290E+01  4.690699481E-01
  4.390437010E+00  3.604551991E-01
   s   3
  1.162636186E+01 -1.149611817E-01
  2.716279807E+00 -1.691174786E-01
  7.722183966E-01  1.145851947E+00
   s   1
  2.120314975E-01  1.000000000E+00
   p   3
  1.162636186E+01  6.757974388E-02
  2.716279807E+00  3.239072959E-01
  7.722183966E-01  7.408951398E-01
   p   1
  2.120314975E-01  1.000000000E+00
   d   1
  8.000000000E-01  1.000000000E+00
 
   6
   s   3
  1.873113696E+01  3.349460434E-02
  2.825394365E+00  2.347269535E-01
  6.401216923E-01  8.137573261E-01
   s   1
  1.612777588E-01  1.000000000E+00
 
   7
   s   6
  4.173511460E+03  1.834772160E-03
  6.274579110E+02  1.399462700E-02
  1.429020930E+02  6.858655181E-02
  4.023432930E+01  2.322408730E-01
  1.282021290E+01  4.690699481E-01
  4.390437010E+00  3.604551991E-01
   s   3
  1.162636186E+01 -1.149611817E-01
  2.716279807E+00 -1.691174786E-01
  7.722183966E-01  1.145851947E+00
   s   1
  2.120314975E-01  1.000000000E+00
   p   3
  1.162636186E+01  6.757974388E-02
  2.716279807E+00  3.239072959E-01
  7.722183966E-01  7.408951398E-01
   p   1
  2.120314975E-01  1.000000000E+00
   d   1
  8.000000000E-01  1.000000000E+00
 
   8
   s   3
  1.873113696E+01  3.349460434E-02
  2.825394365E+00  2.347269535E-01
  6.401216923E-01  8.137573261E-01
   s   1
  1.612777588E-01  1.000000000E+00
 
   9
   s   6
  3.047524880E+03  1.834737132E-03
  4.573695180E+02  1.403732281E-02
  1.039486850E+02  6.884262227E-02
  2.921015530E+01  2.321844432E-01
  9.286662960E+00  4.679413484E-01
  3.163926960E+00  3.623119853E-01
   s   3
  7.868272350E+00 -1.193324198E-01
  1.881288540E+00 -1.608541517E-01
  5.442492580E-01  1.143456438E+00
   s   1
  1.687144782E-01  1.000000000E+00
   p   3
  7.868272350E+00  6.899906659E-02
  1.881288540E+00  3.164239610E-01
  5.442492580E-01  7.443082909E-01
   p   1
  1.687144782E-01  1.000000000E+00
   d   1
  8.000000000E-01  1.000000000E+00
 
  10
   s   6
  3.047524880E+03  1.834737132E-03
  4.573695180E+02  1.403732281E-02
  1.039486850E+02  6.884262227E-02
  2.921015530E+01  2.321844432E-01
  9.286662960E+00  4.679413484E-01
  3.163926960E+00  3.623119853E-01
   s   3
  7.868272350E+00 -1.193324198E-01
  1.881288540E+00 -1.608541517E-01
  5.442492580E-01  1.143456438E+00
   s   1
  1.687144782E-01  1.000000000E+00
   p   3
  7.868272350E+00  6.899906659E-02
  1.881288540E+00  3.164239610E-01
  5.442492580E-01  7.443082909E-01
   p   1
  1.687144782E-01  1.000000000E+00
   d   1
  8.000000000E-01  1.000000000E+00
 
  11
   s   3
  1.873113696E+01  3.349460434E-02
  2.825394365E+00  2.347269535E-01
  6.401216923E-01  8.137573261E-01
   s   1
  1.612777588E-01  1.000000000E+00
 
  12
   s   3
  1.873113696E+01  3.349460434E-02
  2.825394365E+00  2.347269535E-01
  6.401216923E-01  8.137573261E-01
   s   1
  1.612777588E-01  1.000000000E+00
 
  13
   s   3
  1.873113696E+01  3.349460434E-02
  2.825394365E+00  2.347269535E-01
  6.401216923E-01  8.137573261E-01
   s   1
  1.612777588E-01  1.000000000E+00
 
[MO]
Sym=     1a  
Ene=   -15.5680
Spin= Alpha
Occup=    2.00000
   1         0.00000970
   2         0.00028244
   3         0.00323482
   4        -0.00006059
   5        -0.00007386
   6        -0.00000000
   7         0.00104759
   8        -0.00182591
   9         0.00000000
  10        -0.00016363
  11        -0.00037985
  12        -0.00008790
  13        -0.00022784
  14         0.00000000
  15        -0.00000000
  16         0.00002543
  17         0.00008583
  18        -0.00221606
  19         0.00008176
  20         0.00000504
  21         0.00000000
  22         0.00076652
  23         0.00111592
  24        -0.00000000
  25         0.00000750
  26         0.00004035
  27         0.00001436
  28        -0.00003635
  29         0.00000000
  30         0.00000000
  31         0.00000147
  32        -0.00000706
  33         0.00123415
  34         0.00000767
  35         0.00001029
  36        -0.00000000
  37        -0.00059821
  38        -0.00000112
  39         0.00000000
  40        -0.00000634
  41         0.00000233
  42        -0.00001355
  43        -0.00001138
  44        -0.00000000
  45        -0.00000000
  46        -0.00003924
  47        -0.00030352
  48         0.99519396
  49         0.02496937
  50        -0.00583172
  51         0.00186192
  52         0.00010255
  53        -0.00000000
  54        -0.00267660
  55         0.00024020
  56        -0.00000000
  57        -0.00291611
  58        -0.00274741
  59        -0.00321314
  60         0.00000912
  61        -0.00000000
  62        -0.00000000
  63         0.00004266
  64         0.00050661
  65        -0.00187824
  66         0.00001982
  67        -0.00101770
  68        -0.00000251
  69        -0.00000151
  70         0.00000000
  71        -0.00002244
  72        -0.00063275
  73        -0.00000000
  74         0.00006824
  75         0.00006154
  76        -0.00000392
  77         0.00005564
  78        -0.00000000
  79        -0.00000000
  80         0.00000974
  81         0.00011478
  82         0.00001602
  83         0.00038575
  84         0.00250569
  85         0.00000882
  86         0.00009593
  87        -0.00000000
  88        -0.00024547
  89         0.00215457
  90         0.00000000
  91        -0.00017462
  92        -0.00028390
  93        -0.00004915
  94         0.00020869
  95         0.00000000
  96         0.00000000
  97        -0.00000294
  98        -0.00002653
  99         0.00064985
 100         0.00000424
 101        -0.00000425
 102         0.00000000
 103         0.00038487
 104        -0.00006796
 105         0.00000000
 106         0.00004136
 107        -0.00008025
 108        -0.00000493
 109         0.00003892
 110        -0.00000000
 111         0.00000000
 112         0.00003377
 113         0.00001366
 114        -0.00001369
 115        -0.00011137
 116        -0.00001369
 117        -0.00011137
Sym=     2a  
Ene=   -15.5610
Spin= Alpha
Occup=    2.00000
   1         0.00000216
   2        -0.00000065
   3        -0.00131099
   4         0.00000279
   5         0.00000523
   6        -0.00000000
   7        -0.00030726
   8         0.00055139
   9         0.00000000
  10        -0.00001126
  11         0.00001127
  12         0.00001499
  13        -0.00000274
  14         0.00000000
  15         0.00000000
  16        -0.00002302
  17        -0.00009361
  18         0.00220634
  19         0.00003950
  20        -0.00006284
  21        -0.00000000
  22        -0.00053200
  23        -0.00126599
  24         0.00000000
  25        -0.00005829
  26         0.00001197
  27        -0.00001458
  28        -0.00000261
  29         0.00000000
  30        -0.00000000
  31        -0.00000482
  32        -0.00029936
  33        -0.00327155
  34         0.00004379
  35         0.00011085
  36        -0.00000000
  37         0.00210685
  38         0.00013951
  39        -0.00000000
  40         0.00013882
  41         0.00040030
  42         0.00008957
  43         0.00020844
  44         0.00000000
  45         0.00000000
  46         0.00004238
  47         0.00031268
  48        -0.00190443
  49        -0.00009096
  50         0.00098654
  51         0.00001728
  52        -0.00004326
  53        -0.00000000
  54         0.00054000
  55         0.00044026
  56         0.00000000
  57         0.00000073
  58        -0.00009766
  59         0.00001967
  60        -0.00001770
  61         0.00000000
  62         0.00000000
  63        -0.00000459
  64        -0.00011414
  65        -0.99518910
  66        -0.02502034
  67         0.00580768
  68         0.00076727
  69        -0.00161062
  70        -0.00000000
  71        -0.00165168
  72         0.00215587
  73         0.00000000
  74         0.00285491
  75         0.00291312
  76         0.00325138
  77        -0.00009619
  78         0.00000000
  79         0.00000000
  80        -0.00003128
  81        -0.00048934
  82        -0.00005824
  83        -0.00031366
  84        -0.00231897
  85         0.00000016
  86         0.00000414
  87         0.00000000
  88        -0.00198487
  89        -0.00091203
  90        -0.00000000
  91         0.00041925
  92         0.00004018
  93         0.00003464
  94        -0.00003498
  95        -0.00000000
  96         0.00000000
  97         0.00000697
  98         0.00001212
  99        -0.00066096
 100        -0.00001390
 101        -0.00002271
 102         0.00000000
 103         0.00031635
 104        -0.00033909
 105        -0.00000000
 106         0.00004002
 107        -0.00004871
 108         0.00003723
 109         0.00006536
 110         0.00000000
 111        -0.00000000
 112         0.00005092
 113         0.00019315
 114        -0.00002151
 115         0.00000125
 116        -0.00002151
 117         0.00000125
Sym=     3a  
Ene=   -11.3010
Spin= Alpha
Occup=    2.00000
   1        -0.00055475
   2        -0.00035962
   3         0.00383648
   4        -0.00005850
   5        -0.00005983
   6        -0.00000000
   7         0.00194577
   8        -0.00247436
   9         0.00000000
  10         0.00011495
  11         0.00022504
  12        -0.00008275
  13         0.00004099
  14         0.00000000
  15         0.00000000
  16        -0.00009834
  17         0.00034652
  18        -0.00507671
  19         0.00000461
  20         0.00001502
  21         0.00000000
  22         0.00161035
  23         0.00297561
  24        -0.00000000
  25        -0.00003979
  26        -0.00002475
  27         0.00010524
  28         0.00001258
  29         0.00000000
  30         0.00000000
  31        -0.00055525
  32        -0.00035961
  33         0.00381482
  34        -0.00001953
  35        -0.00007441
  36         0.00000000
  37        -0.00311385
  38         0.00030665
  39         0.00000000
  40         0.00016511
  41         0.00017165
  42        -0.00008044
  43         0.00007764
  44         0.00000000
  45         0.00000000
  46        -0.00010431
  47        -0.00093494
  48        -0.00021361
  49         0.00053647
  50        -0.00235402
  51         0.00002619
  52         0.00000454
  53         0.00000000
  54        -0.00185310
  55        -0.00025676
  56        -0.00000000
  57        -0.00022323
  58        -0.00037140
  59         0.00030238
  60         0.00014787
  61        -0.00000000
  62         0.00000000
  63         0.00012651
  64         0.00097023
  65        -0.00022333
  66         0.00057953
  67        -0.00263232
  68        -0.00011375
  69         0.00004571
  70         0.00000000
  71         0.00082978
  72        -0.00162199
  73        -0.00000000
  74        -0.00039602
  75        -0.00013602
  76         0.00031396
  77        -0.00002284
  78        -0.00000000
  79        -0.00000000
  80         0.00013199
  81         0.00097543
  82         0.99567969
  83         0.02687727
  84        -0.00704894
  85         0.00023172
  86         0.00044221
  87         0.00000000
  88         0.00149092
  89         0.00216632
  90         0.00000000
  91        -0.00126748
  92        -0.00140484
  93        -0.00233837
  94        -0.00011843
  95        -0.00000000
  96        -0.00000000
  97         0.00466638
  98         0.00026101
  99         0.00298323
 100        -0.00003183
 101        -0.00016219
 102         0.00000000
 103         0.00047380
 104         0.00160762
 105        -0.00000000
 106        -0.00022983
 107        -0.00046168
 108        -0.00008500
 109        -0.00021564
 110         0.00000000
 111        -0.00000000
 112        -0.00008416
 113        -0.00008883
 114        -0.00012469
 115         0.00037642
 116        -0.00012469
 117         0.00037642
Sym=     4a  
Ene=   -11.2890
Spin= Alpha
Occup=    2.00000
   1         0.97248240
   2         0.02642139
   3        -0.00874519
   4        -0.00009182
   5        -0.00061010
   6        -0.00000000
   7        -0.00154870
   8        -0.00110933
   9         0.00000000
  10        -0.00144534
  11        -0.00139968
  12        -0.00234943
  13         0.00021825
  14         0.00000000
  15        -0.00000000
  16         0.01682076
  17         0.00044384
  18         0.00336839
  19         0.00013649
  20         0.00002510
  21         0.00000000
  22        -0.00139285
  23         0.00095357
  24         0.00000000
  25        -0.00053171
  26        -0.00039020
  27        -0.00010606
  28         0.00006814
  29         0.00000000
  30        -0.00000000
  31         0.21302087
  32         0.00564390
  33        -0.00086362
  34        -0.00014021
  35        -0.00010401
  36        -0.00000000
  37        -0.00059774
  38         0.00018520
  39        -0.00000000
  40        -0.00023193
  41        -0.00019507
  42        -0.00052821
  43        -0.00005119
  44        -0.00000000
  45        -0.00000000
  46        -0.00015825
  47        -0.00041692
  48        -0.00024306
  49         0.00040128
  50        -0.00123107
  51        -0.00000623
  52         0.00008300
  53        -0.00000000
  54        -0.00117841
  55        -0.00112444
  56         0.00000000
  57        -0.00022753
  58        -0.00049783
  59         0.00022223
  60        -0.00015242
  61        -0.00000000
  62        -0.00000000
  63        -0.00017528
  64         0.00190646
  65         0.00000454
  66         0.00034472
  67        -0.00280442
  68        -0.00002202
  69         0.00000368
  70        -0.00000000
  71         0.00101459
  72        -0.00073936
  73        -0.00000000
  74        -0.00002638
  75         0.00003507
  76         0.00018284
  77        -0.00001089
  78         0.00000000
  79        -0.00000000
  80        -0.00004212
  81         0.00064778
  82         0.00061690
  83        -0.00022861
  84         0.00106486
  85        -0.00002111
  86        -0.00009382
  87         0.00000000
  88         0.00255473
  89         0.00251738
  90         0.00000000
  91         0.00017731
  92         0.00021811
  93        -0.00006015
  94        -0.00003587
  95        -0.00000000
  96        -0.00000000
  97         0.00001792
  98        -0.00009908
  99         0.00221053
 100         0.00003359
 101         0.00010751
 102        -0.00000000
 103         0.00019219
 104         0.00073221
 105        -0.00000000
 106        -0.00003632
 107         0.00000633
 108         0.00000322
 109        -0.00001272
 110         0.00000000
 111        -0.00000000
 112        -0.00001473
 113        -0.00023359
 114        -0.00005534
 115        -0.00004724
 116        -0.00005534
 117        -0.00004724
Sym=     5a  
Ene=   -11.2890
Spin= Alpha
Occup=    2.00000
   1        -0.21323015
   2        -0.00595614
   3         0.00307563
   4         0.00003048
   5         0.00009088
   6         0.00000000
   7         0.00118533
   8         0.00004762
   9         0.00000000
  10         0.00048832
  11         0.00035772
  12         0.00050146
  13        -0.00009877
  14        -0.00000000
  15         0.00000000
  16         0.01079842
  17         0.00027905
  18         0.00216952
  19        -0.00012396
  20         0.00013325
  21        -0.00000000
  22         0.00229901
  23        -0.00114871
  24         0.00000000
  25        -0.00028851
  26        -0.00029728
  27        -0.00006860
  28         0.00007845
  29         0.00000000
  30         0.00000000
  31         0.97252588
  32         0.02650956
  33        -0.00926759
  34        -0.00043782
  35        -0.00041178
  36         0.00000000
  37         0.00018078
  38        -0.00210838
  39        -0.00000000
  40        -0.00164525
  41        -0.00131447
  42        -0.00235131
  43         0.00015334
  44         0.00000000
  45         0.00000000
  46        -0.00009977
  47        -0.00025935
  48         0.00012232
  49         0.00015012
  50        -0.00230400
  51        -0.00003040
  52        -0.00000375
  53         0.00000000
  54        -0.00075580
  55         0.00089816
  56        -0.00000000
  57         0.00011970
  58         0.00020499
  59         0.00008858
  60         0.00009795
  61         0.00000000
  62        -0.00000000
  63         0.00002780
  64        -0.00017903
  65        -0.00028402
  66         0.00034600
  67        -0.00024100
  68        -0.00003583
  69         0.00005763
  70         0.00000000
  71        -0.00073400
  72        -0.00132101
  73        -0.00000000
  74        -0.00030772
  75        -0.00047777
  76         0.00016626
  77        -0.00023200
  78         0.00000000
  79        -0.00000000
  80        -0.00016299
  81         0.00181947
  82         0.00038392
  83        -0.00012553
  84         0.00074953
  85         0.00004939
  86        -0.00006129
  87         0.00000000
  88        -0.00006417
  89         0.00247998
  90        -0.00000000
  91         0.00019027
  92         0.00006390
  93        -0.00004111
  94         0.00003198
  95        -0.00000000
  96        -0.00000000
  97         0.00002174
  98        -0.00003495
  99         0.00119518
 100         0.00008792
 101         0.00001950
 102         0.00000000
 103         0.00018439
 104         0.00042253
 105         0.00000000
 106         0.00003619
 107        -0.00001893
 108         0.00000057
 109         0.00001620
 110         0.00000000
 111        -0.00000000
 112        -0.00004705
 113        -0.00007594
 114         0.00000006
 115         0.00000252
 116         0.00000006
 117         0.00000252
Sym=     6a  
Ene=   -11.2480
Spin= Alpha
Occup=    2.00000
   1        -0.01461253
   2        -0.00056995
   3         0.00633774
   4        -0.00017115
   5         0.00001134
   6        -0.00000000
   7         0.00226622
   8        -0.00145550
   9         0.00000000
  10        -0.00045569
  11        -0.00023881
  12        -0.00008373
  13        -0.00006040
  14        -0.00000000
  15        -0.00000000
  16         0.99545032
  17         0.02802829
  18        -0.01530997
  19        -0.00014574
  20        -0.00026476
  21         0.00000000
  22         0.00157616
  23         0.00290602
  24        -0.00000000
  25        -0.00160175
  26        -0.00174806
  27        -0.00237809
  28        -0.00012993
  29        -0.00000000
  30         0.00000000
  31        -0.01464182
  32        -0.00057227
  33         0.00633211
  34         0.00010278
  35        -0.00013579
  36        -0.00000000
  37        -0.00245427
  38         0.00112837
  39        -0.00000000
  40        -0.00025467
  41        -0.00044072
  42        -0.00008308
  43         0.00008919
  44        -0.00000000
  45         0.00000000
  46        -0.00025385
  47         0.00120369
  48         0.00007290
  49         0.00017395
  50        -0.00258453
  51         0.00002524
  52         0.00001541
  53         0.00000000
  54        -0.00095712
  55        -0.00025546
  56        -0.00000000
  57         0.00017886
  58         0.00019015
  59         0.00011554
  60         0.00004872
  61        -0.00000000
  62        -0.00000000
  63        -0.00002108
  64         0.00031363
  65         0.00007274
  66         0.00018130
  67        -0.00263390
  68        -0.00000951
  69         0.00003007
  70        -0.00000000
  71         0.00033539
  72        -0.00092354
  73         0.00000000
  74         0.00014897
  75         0.00022392
  76         0.00011770
  77         0.00002530
  78        -0.00000000
  79        -0.00000000
  80        -0.00002001
  81         0.00031610
  82         0.00015975
  83         0.00001805
  84         0.00099336
  85         0.00000429
  86        -0.00000142
  87        -0.00000000
  88         0.00058015
  89         0.00097100
  90        -0.00000000
  91         0.00003404
  92         0.00004580
  93        -0.00000520
  94         0.00001312
  95        -0.00000000
  96         0.00000000
  97        -0.00000559
  98        -0.00002476
  99         0.00058052
 100         0.00001004
 101         0.00001282
 102         0.00000000
 103         0.00005582
 104         0.00016878
 105         0.00000000
 106        -0.00000636
 107        -0.00001292
 108        -0.00000929
 109        -0.00000670
 110         0.00000000
 111         0.00000000
 112        -0.00001032
 113        -0.00005764
 114        -0.00000696
 115        -0.00002559
 116        -0.00000696
 117        -0.00002559
Sym=     7a  
Ene=   -11.2310
Spin= Alpha
Occup=    2.00000
   1        -0.00003894
   2        -0.00005875
   3         0.00026772
   4        -0.00000195
   5         0.00000741
   6         0.00000000
   7         0.00002908
   8        -0.00016800
   9        -0.00000000
  10        -0.00000379
  11         0.00000932
  12        -0.00002349
  13         0.00000531
  14        -0.00000000
  15         0.00000000
  16        -0.00000470
  17        -0.00002803
  18         0.00005902
  19        -0.00000414
  20         0.00002016
  21        -0.00000000
  22         0.00012506
  23        -0.00002678
  24         0.00000000
  25        -0.00000013
  26        -0.00000106
  27        -0.00001849
  28         0.00000246
  29        -0.00000000
  30         0.00000000
  31        -0.00003474
  32        -0.00006332
  33         0.00061834
  34        -0.00000586
  35        -0.00003105
  36        -0.00000000
  37        -0.00025091
  38        -0.00047991
  39        -0.00000000
  40         0.00001968
  41         0.00003631
  42        -0.00002591
  43         0.00002665
  44         0.00000000
  45        -0.00000000
  46        -0.00001318
  47         0.00002121
  48        -0.00000961
  49        -0.00013486
  50         0.00004358
  51         0.00000233
  52         0.00006980
  53        -0.00000000
  54         0.00029314
  55        -0.00008184
  56         0.00000000
  57         0.00003765
  58         0.00000802
  59        -0.00011249
  60        -0.00006358
  61        -0.00000000
  62         0.00000000
  63        -0.00000692
  64         0.00006086
  65        -0.00003944
  66        -0.00016985
  67         0.00083101
  68        -0.00000634
  69         0.00011017
  70         0.00000000
  71        -0.00109140
  72        -0.00038257
  73        -0.00000000
  74         0.00009474
  75        -0.00008462
  76        -0.00015135
  77        -0.00003473
  78        -0.00000000
  79         0.00000000
  80        -0.00001091
  81         0.00007397
  82        -0.00499196
  83         0.00006051
  84         0.00317092
  85         0.00008422
  86         0.00003911
  87         0.00000000
  88        -0.00217694
  89        -0.00220694
  90         0.00000000
  91        -0.00035588
  92        -0.00049143
  93        -0.00012696
  94        -0.00016378
  95         0.00000000
  96        -0.00000000
  97         0.99575186
  98         0.02846975
  99        -0.01578990
 100         0.00019725
 101         0.00022666
 102        -0.00000000
 103        -0.00056245
 104        -0.00118216
 105        -0.00000000
 106        -0.00179297
 107        -0.00182384
 108        -0.00180207
 109         0.00002826
 110        -0.00000000
 111         0.00000000
 112         0.00019622
 113         0.00243902
 114         0.00016678
 115         0.00249543
 116         0.00016678
 117         0.00249543
Sym=     8a  
Ene=    -1.2438
Spin= Alpha
Occup=    2.00000
   1        -0.09961494
   2         0.19401859
   3         0.05856704
   4        -0.00971295
   5        -0.09740918
   6        -0.00000000
   7        -0.00618593
   8         0.02625720
   9        -0.00000000
  10         0.00153673
  11         0.01583387
  12        -0.01045565
  13         0.00758802
  14        -0.00000000
  15        -0.00000000
  16        -0.05737199
  17         0.10576281
  18         0.09646222
  19        -0.03404922
  20        -0.03586690
  21        -0.00000000
  22        -0.01057286
  23        -0.03112897
  24        -0.00000000
  25         0.00708159
  26         0.00237628
  27        -0.00537260
  28         0.00015784
  29         0.00000000
  30        -0.00000000
  31        -0.05450391
  32         0.10747067
  33         0.02449935
  34        -0.04143427
  35        -0.01408076
  36        -0.00000000
  37         0.01322244
  38        -0.00167345
  39         0.00000000
  40         0.00139162
  41         0.00664408
  42        -0.00538989
  43         0.00060517
  44         0.00000000
  45        -0.00000000
  46         0.01789457
  47         0.00696649
  48        -0.15629549
  49         0.31797499
  50         0.35899474
  51         0.10364378
  52         0.00191937
  53         0.00000000
  54         0.07210178
  55        -0.00546536
  56         0.00000000
  57         0.00248546
  58         0.01109446
  59        -0.01250807
  60         0.00103599
  61        -0.00000000
  62        -0.00000000
  63         0.03216061
  64        -0.00640876
  65        -0.04265371
  66         0.08349969
  67         0.09391055
  68         0.04611275
  69         0.04074718
  70         0.00000000
  71         0.02797846
  72         0.02340866
  73        -0.00000000
  74         0.00014910
  75         0.00467425
  76        -0.00371386
  77         0.00269723
  78         0.00000000
  79         0.00000000
  80         0.01432871
  81        -0.00978635
  82        -0.07280220
  83         0.13985276
  84         0.00973362
  85        -0.08785247
  86         0.08894537
  87         0.00000000
  88        -0.01066371
  89        -0.02999970
  90         0.00000000
  91        -0.00208524
  92         0.01585901
  93        -0.00835346
  94        -0.00928906
  95         0.00000000
  96         0.00000000
  97        -0.02171134
  98         0.04027349
  99         0.02569572
 100         0.00855132
 101         0.02810803
 102        -0.00000000
 103        -0.00155741
 104         0.00798515
 105         0.00000000
 106        -0.00059449
 107         0.00535951
 108        -0.00048544
 109         0.00153738
 110        -0.00000000
 111        -0.00000000
 112         0.00835061
 113        -0.00371057
 114         0.00766819
 115         0.00144167
 116         0.00766819
 117         0.00144167
Sym=     9a  
Ene=    -1.1247
Spin= Alpha
Occup=    2.00000
   1        -0.01670422
   2         0.03241957
   3         0.01580482
   4        -0.07061886
   5        -0.04804768
   6         0.00000000
   7        -0.00626257
   8         0.00699191
   9         0.00000000
  10        -0.00613686
  11         0.01005332
  12        -0.00237089
  13         0.00706778
  14         0.00000000
  15         0.00000000
  16         0.07308871
  17        -0.13928312
  18        -0.09632918
  19        -0.03919378
  20         0.06675247