[Molden Format]
[N_Atoms]
                    6
[Atoms] (AU)
C1          1      6          -1.24432229      0.00000000      0.00000000
C2          2      6           1.24432229      0.00000000      0.00000000
H3          3      1          -2.31622597      1.72784085      0.00000000
H4          4      1          -2.31622597     -1.72784085      0.00000000
H5          5      1           2.31622597      1.72784085      0.00000000
H6          6      1           2.31622597     -1.72784085      0.00000000
[Charge] (Mulliken)
 -0.35358628229291345     
 -0.35358628228350586     
  0.17679314114472211     
  0.17679314114471267     
  0.17679314114346245     
  0.17679314114347100     
[GTO] (AU)
   1
   s   6
  3.047524880E+03  1.834737132E-03
  4.573695180E+02  1.403732281E-02
  1.039486850E+02  6.884262227E-02
  2.921015530E+01  2.321844432E-01
  9.286662960E+00  4.679413484E-01
  3.163926960E+00  3.623119853E-01
   s   3
  7.868272350E+00 -1.193324198E-01
  1.881288540E+00 -1.608541517E-01
  5.442492580E-01  1.143456438E+00
   s   1
  1.687144782E-01  1.000000000E+00
   p   3
  7.868272350E+00  6.899906659E-02
  1.881288540E+00  3.164239610E-01
  5.442492580E-01  7.443082909E-01
   p   1
  1.687144782E-01  1.000000000E+00
   d   1
  8.000000000E-01  1.000000000E+00
 
   2
   s   6
  3.047524880E+03  1.834737132E-03
  4.573695180E+02  1.403732281E-02
  1.039486850E+02  6.884262227E-02
  2.921015530E+01  2.321844432E-01
  9.286662960E+00  4.679413484E-01
  3.163926960E+00  3.623119853E-01
   s   3
  7.868272350E+00 -1.193324198E-01
  1.881288540E+00 -1.608541517E-01
  5.442492580E-01  1.143456438E+00
   s   1
  1.687144782E-01  1.000000000E+00
   p   3
  7.868272350E+00  6.899906659E-02
  1.881288540E+00  3.164239610E-01
  5.442492580E-01  7.443082909E-01
   p   1
  1.687144782E-01  1.000000000E+00
   d   1
  8.000000000E-01  1.000000000E+00
 
   3
   s   3
  1.873113696E+01  3.349460434E-02
  2.825394365E+00  2.347269535E-01
  6.401216923E-01  8.137573261E-01
   s   1
  1.612777588E-01  1.000000000E+00
 
   4
   s   3
  1.873113696E+01  3.349460434E-02
  2.825394365E+00  2.347269535E-01
  6.401216923E-01  8.137573261E-01
   s   1
  1.612777588E-01  1.000000000E+00
 
   5
   s   3
  1.873113696E+01  3.349460434E-02
  2.825394365E+00  2.347269535E-01
  6.401216923E-01  8.137573261E-01
   s   1
  1.612777588E-01  1.000000000E+00
 
   6
   s   3
  1.873113696E+01  3.349460434E-02
  2.825394365E+00  2.347269535E-01
  6.401216923E-01  8.137573261E-01
   s   1
  1.612777588E-01  1.000000000E+00
 
[MO]
Sym=     1a  
Ene=   -11.2240
Spin= Alpha
Occup=    2.00000
   1         0.70372997
   2         0.01927980
   3        -0.00534693
   4        -0.00014707
   5        -0.00000000
   6        -0.00000000
   7         0.00074760
   8         0.00000000
   9        -0.00000000
  10        -0.00130746
  11        -0.00165521
  12        -0.00189337
  13        -0.00000000
  14        -0.00000000
  15         0.00000000
  16         0.70372996
  17         0.01927980
  18        -0.00534693
  19         0.00014707
  20        -0.00000000
  21        -0.00000000
  22        -0.00074760
  23        -0.00000000
  24         0.00000000
  25        -0.00130746
  26        -0.00165521
  27        -0.00189337
  28         0.00000000
  29        -0.00000000
  30        -0.00000000
  31        -0.00014094
  32         0.00148875
  33        -0.00014094
  34         0.00148875
  35        -0.00014094
  36         0.00148875
  37        -0.00014094
  38         0.00148875
Sym=     2a  
Ene=   -11.2220
Spin= Alpha
Occup=    2.00000
   1        -0.70423395
   2        -0.01980673
   3         0.01122158
   4        -0.00018302
   5        -0.00000000
   6        -0.00000000
   7         0.00167978
   8         0.00000000
   9        -0.00000000
  10         0.00098398
  11         0.00127664
  12         0.00179305
  13        -0.00000000
  14         0.00000000
  15         0.00000000
  16         0.70423395
  17         0.01980673
  18        -0.01122158
  19        -0.00018302
  20         0.00000000
  21         0.00000000
  22         0.00167978
  23        -0.00000000
  24         0.00000000
  25        -0.00098398
  26        -0.00127664
  27        -0.00179305
  28         0.00000000
  29        -0.00000000
  30         0.00000000
  31         0.00006449
  32        -0.00154548
  33         0.00006449
  34        -0.00154548
  35        -0.00006449
  36         0.00154548
  37        -0.00006449
  38         0.00154548
Sym=     3a  
Ene=    -1.0331
Spin= Alpha
Occup=    2.00000
   1        -0.15801990
   2         0.29841029
   3         0.22845222
   4         0.10756877
   5        -0.00000000
   6         0.00000000
   7         0.00626085
   8        -0.00000000
   9         0.00000000
  10         0.01713394
  11         0.00459371
  12        -0.01288800
  13         0.00000000
  14        -0.00000000
  15        -0.00000000
  16        -0.15801990
  17         0.29841029
  18         0.22845222
  19        -0.10756877
  20         0.00000000
  21        -0.00000000
  22        -0.00626085
  23         0.00000000
  24         0.00000000
  25         0.01713394
  26         0.00459371
  27        -0.01288800
  28         0.00000000
  29        -0.00000000
  30        -0.00000000
  31         0.08277970
  32         0.01561408
  33         0.08277970
  34         0.01561408
  35         0.08277970
  36         0.01561408
  37         0.08277970
  38         0.01561408
Sym=     4a  
Ene=    -0.7895
Spin= Alpha
Occup=    2.00000
   1         0.11950891
   2        -0.23123658
   3        -0.23278909
   4         0.16851596
   5         0.00000000
   6        -0.00000000
   7         0.06711480
   8         0.00000000
   9        -0.00000000
  10        -0.00126996
  11        -0.02385431
  12         0.01099751
  13        -0.00000000
  14        -0.00000000
  15         0.00000000
  16        -0.11950891
  17         0.23123658
  18         0.23278909
  19         0.16851596
  20         0.00000000
  21        -0.00000000
  22         0.06711480
  23        -0.00000000
  24        -0.00000000
  25         0.00126996
  26         0.02385431
  27        -0.01099751
  28         0.00000000
  29        -0.00000000
  30         0.00000000
  31        -0.14694055
  32        -0.06662838
  33        -0.14694055
  34        -0.06662838
  35         0.14694055
  36         0.06662838
  37         0.14694055
  38         0.06662838
Sym=     5a  
Ene=    -0.6406
Spin= Alpha
Occup=    2.00000
   1        -0.00000000
   2         0.00000000
   3         0.00000000
   4         0.00000000
   5         0.32238292
   6         0.00000000
   7         0.00000000
   8         0.12826926
   9        -0.00000000
  10         0.00000000
  11         0.00000000
  12        -0.00000000
  13        -0.01293828
  14        -0.00000000
  15        -0.00000000
  16         0.00000000
  17        -0.00000000
  18        -0.00000000
  19        -0.00000000
  20         0.32238292
  21         0.00000000
  22        -0.00000000
  23         0.12826926
  24         0.00000000
  25         0.00000000
  26        -0.00000000
  27         0.00000000
  28         0.01293828
  29        -0.00000000
  30        -0.00000000
  31         0.15745373
  32         0.10713020
  33        -0.15745373
  34        -0.10713020
  35         0.15745373
  36         0.10713020
  37        -0.15745373
  38        -0.10713020
Sym=     6a  
Ene=    -0.5864
Spin= Alpha
Occup=    2.00000
   1         0.01227665
   2        -0.02839068
   3         0.01548479
   4        -0.40826280
   5         0.00000000
   6         0.00000000
   7        -0.15289126
   8         0.00000000
   9        -0.00000000
  10        -0.01135325
  11         0.02664499
  12        -0.00138763
  13         0.00000000
  14        -0.00000000
  15         0.00000000
  16         0.01227665
  17        -0.02839068
  18         0.01548479
  19         0.40826280
  20         0.00000000
  21        -0.00000000
  22         0.15289126
  23         0.00000000
  24        -0.00000000
  25        -0.01135325
  26         0.02664499
  27        -0.00138763
  28         0.00000000
  29         0.00000000
  30        -0.00000000
  31         0.12521803
  32         0.10047132
  33         0.12521803
  34         0.10047132
  35         0.12521803
  36         0.10047132
  37         0.12521803
  38         0.10047132
Sym=     7a  
Ene=    -0.5019
Spin= Alpha
Occup=    2.00000
   1         0.00000000
   2        -0.00000000
   3        -0.00000000
   4         0.00000000
   5        -0.30417186
   6        -0.00000000
   7         0.00000000
   8        -0.19715435
   9        -0.00000000
  10        -0.00000000
  11        -0.00000000
  12         0.00000000
  13         0.03732746
  14         0.00000000
  15        -0.00000000
  16        -0.00000000
  17         0.00000000
  18         0.00000000
  19        -0.00000000
  20         0.30417186
  21        -0.00000000
  22        -0.00000000
  23         0.19715435
  24        -0.00000000
  25         0.00000000
  26         0.00000000
  27         0.00000000
  28         0.03732746
  29         0.00000000
  30        -0.00000000
  31        -0.18950188
  32        -0.15544422
  33         0.18950188
  34         0.15544422
  35         0.18950188
  36         0.15544422
  37        -0.18950188
  38        -0.15544422
Sym=     8a  
Ene=    -0.3743
Spin= Alpha
Occup=    2.00000
   1         0.00000000
   2        -0.00000000
   3        -0.00000000
   4        -0.00000000
   5        -0.00000000
   6         0.37545311
   7        -0.00000000
   8        -0.00000000
   9         0.30361739
  10         0.00000000
  11        -0.00000000
  12         0.00000000
  13         0.00000000
  14         0.02557211
  15         0.00000000
  16         0.00000000
  17         0.00000000
  18         0.00000000
  19         0.00000000
  20         0.00000000
  21         0.37545311
  22        -0.00000000
  23         0.00000000
  24         0.30361739
  25         0.00000000
  26         0.00000000
  27         0.00000000
  28         0.00000000
  29        -0.02557211
  30         0.00000000
  31        -0.00000000
  32        -0.00000000
  33         0.00000000
  34         0.00000000
  35         0.00000000
  36         0.00000000
  37         0.00000000
  38         0.00000000
Sym=     9a  
Ene=     0.1845
Spin= Alpha
Occup=    0.00000
   1         0.00000000
   2        -0.00000000
   3        -0.00000000
   4        -0.00000000
   5         0.00000000
   6        -0.34064578
   7         0.00000000
   8         0.00000000
   9        -0.74700511
  10        -0.00000000
  11        -0.00000000
  12         0.00000000
  13        -0.00000000
  14         0.02410942
  15         0.00000000
  16        -0.00000000
  17        -0.00000000
  18        -0.00000000
  19         0.00000000
  20        -0.00000000
  21         0.34064578
  22         0.00000000
  23         0.00000000
  24         0.74700511
  25        -0.00000000
  26         0.00000000
  27         0.00000000
  28         0.00000000
  29         0.02410942
  30         0.00000000
  31         0.00000000
  32         0.00000000
  33         0.00000000
  34         0.00000000
  35         0.00000000
  36        -0.00000000
  37         0.00000000
  38         0.00000000
Sym=    10a  
Ene=     0.2676
Spin= Alpha
Occup=    0.00000
   1         0.07769625
   2        -0.08034330
   3        -1.50272075
   4         0.14547614
   5         0.00000000
   6         0.00000000
   7         0.65236501
   8        -0.00000000
   9         0.00000000
  10        -0.00405394
  11         0.01086730
  12         0.00458700
  13         0.00000000
  14         0.00000000
  15        -0.00000000
  16         0.07769625
  17        -0.08034330
  18        -1.50272075
  19        -0.14547614
  20         0.00000000
  21        -0.00000000
  22        -0.65236501
  23         0.00000000
  24        -0.00000000
  25        -0.00405394
  26         0.01086730
  27         0.00458700
  28        -0.00000000
  29         0.00000000
  30        -0.00000000
  31         0.01234607
  32         1.04269744
  33         0.01234607
  34         1.04269744
  35         0.01234607
  36         1.04269744
  37         0.01234607
  38         1.04269744
Sym=    11a  
Ene=     0.2938
Spin= Alpha
Occup=    0.00000
   1         0.00000000
   2         0.00000000
   3        -0.00000000
   4        -0.00000000
   5         0.25382910
   6         0.00000000
   7        -0.00000000
   8         0.80219154
   9         0.00000000
  10        -0.00000000
  11         0.00000000
  12         0.00000000
  13         0.02284855
  14         0.00000000
  15        -0.00000000
  16        -0.00000000
  17        -0.00000000
  18         0.00000000
  19         0.00000000
  20         0.25382910
  21        -0.00000000
  22        -0.00000000
  23         0.80219154
  24        -0.00000000
  25         0.00000000
  26        -0.00000000
  27        -0.00000000
  28        -0.02284855
  29         0.00000000
  30         0.00000000
  31        -0.04072546
  32        -1.09953816
  33         0.04072546
  34         1.09953816
  35        -0.04072546
  36        -1.09953816
  37         0.04072546
  38         1.09953816
Sym=    12a  
Ene=     0.3115
Spin= Alpha
Occup=    0.00000
   1         0.10782170
   2        -0.10103105
   3        -1.96131029
   4         0.10117663
   5        -0.00000000
   6         0.00000000
   7         0.15599320
   8        -0.00000000
   9         0.00000000
  10         0.00380425
  11        -0.00114827
  12         0.01128137
  13        -0.00000000
  14        -0.00000000
  15        -0.00000000
  16        -0.10782170
  17         0.10103105
  18         1.96131029
  19         0.10117663
  20        -0.00000000
  21        -0.00000000
  22         0.15599320
  23         0.00000000
  24         0.00000000
  25        -0.00380425
  26         0.00114827
  27        -0.01128137
  28         0.00000000
  29         0.00000000
  30        -0.00000000
  31         0.01488194
  32         1.08438863
  33         0.01488194
  34         1.08438863
  35        -0.01488194
  36        -1.08438863
  37        -0.01488194
  38        -1.08438863
Sym=    13a  
Ene=     0.3936
Spin= Alpha
Occup=    0.00000
   1        -0.00000000
   2         0.00000000
   3         0.00000000
   4        -0.00000000
   5        -0.24681422
   6         0.00000000
   7        -0.00000000
   8        -1.91309616
   9         0.00000000
  10        -0.00000000
  11        -0.00000000
  12        -0.00000000
  13         0.01764172
  14         0.00000000
  15        -0.00000000
  16         0.00000000
  17        -0.00000000
  18        -0.00000000
  19        -0.00000000
  20         0.24681422
  21        -0.00000000
  22        -0.00000000
  23         1.91309616
  24         0.00000000
  25        -0.00000000
  26        -0.00000000
  27        -0.00000000
  28         0.01764172
  29        -0.00000000
  30        -0.00000000
  31        -0.04149003
  32         1.64488632
  33         0.04149003
  34        -1.64488632
  35         0.04149003
  36        -1.64488632
  37        -0.04149003
  38         1.64488632
Sym=    14a  
Ene=     0.4974
Spin= Alpha
Occup=    0.00000
   1        -0.06588812
   2         0.00072789
   3         3.20387692
   4         0.12719351
   5         0.00000000
   6        -0.00000000
   7         3.05362492
   8        -0.00000000
   9         0.00000000
  10         0.00239139
  11         0.02363229
  12        -0.01193600
  13         0.00000000
  14         0.00000000
  15        -0.00000000
  16         0.06588812
  17        -0.00072789
  18        -3.20387692
  19         0.12719351
  20         0.00000000
  21        -0.00000000
  22         3.05362492
  23         0.00000000
  24         0.00000000
  25        -0.00239139
  26        -0.02363229
  27         0.01193600
  28        -0.00000000
  29        -0.00000000
  30         0.00000000
  31         0.08087024
  32         0.59537731
  33         0.08087024
  34         0.59537731
  35        -0.08087024
  36        -0.59537731
  37        -0.08087024
  38        -0.59537731
Sym=    15a  
Ene=     0.6622
Spin= Alpha
Occup=    0.00000
   1        -0.02234772
   2        -0.21633068
   3        -0.19318415
   4        -0.54630994
   5        -0.00000000
   6         0.00000000
   7         1.03844130
   8         0.00000000
   9        -0.00000000
  10        -0.07559980
  11         0.03139673
  12        -0.00138451
  13        -0.00000000
  14         0.00000000
  15        -0.00000000
  16        -0.02234772
  17        -0.21633068
  18        -0.19318415
  19         0.54630994
  20         0.00000000
  21        -0.00000000
  22        -1.03844130
  23        -0.00000000
  24         0.00000000
  25        -0.07559980
  26         0.03139673
  27        -0.00138451
  28         0.00000000
  29        -0.00000000
  30        -0.00000000
  31         0.09546677
  32         0.06164706
  33         0.09546677
  34         0.06164706
  35         0.09546677
  36         0.06164706
  37         0.09546677
  38         0.06164706
Sym=    16a  
Ene=     0.7685
Spin= Alpha
Occup=    0.00000
   1        -0.00000000
   2         0.00000000
   3        -0.00000000
   4         0.00000000
   5        -0.39709010
   6         0.00000000
   7         0.00000000
   8         0.77685278
   9        -0.00000000
  10        -0.00000000
  11         0.00000000
  12        -0.00000000
  13         0.09204943
  14         0.00000000
  15        -0.00000000
  16         0.00000000
  17        -0.00000000
  18         0.00000000
  19         0.00000000
  20        -0.39709010
  21         0.00000000
  22         0.00000000
  23         0.77685278
  24        -0.00000000
  25         0.00000000
  26        -0.00000000
  27        -0.00000000
  28        -0.09204943
  29        -0.00000000
  30         0.00000000
  31        -0.38940160
  32        -0.07219377
  33         0.38940160
  34         0.07219377
  35        -0.38940160
  36        -0.07219377
  37         0.38940160
  38         0.07219377
Sym=    17a  
Ene=     0.7729
Spin= Alpha
Occup=    0.00000
   1         0.00000000
   2         0.00000000
   3         0.00000000
   4        -0.00000000
   5         0.00000000
   6         0.73560563
   7         0.00000000
   8        -0.00000000
   9        -0.63939634
  10         0.00000000
  11         0.00000000
  12        -0.00000000
  13        -0.00000000
  14         0.07003343
  15        -0.00000000
  16         0.00000000
  17        -0.00000000
  18        -0.00000000
  19        -0.00000000
  20        -0.00000000
  21         0.73560563
  22         0.00000000
  23         0.00000000
  24        -0.63939634
  25         0.00000000
  26         0.00000000
  27         0.00000000
  28        -0.00000000
  29        -0.07003343
  30        -0.00000000
  31         0.00000000
  32         0.00000000
  33        -0.00000000
  34        -0.00000000
  35         0.00000000
  36        -0.00000000
  37        -0.00000000
  38         0.00000000
Sym=    18a  
Ene=     0.8528
Spin= Alpha
Occup=    0.00000
   1         0.04098339
   2         0.79062757
   3        -1.56156594
   4         0.00990508
   5        -0.00000000
   6        -0.00000000
   7         0.37790442
   8         0.00000000
   9         0.00000000
  10         0.09172339
  11         0.15521490
  12        -0.04173020
  13         0.00000000
  14        -0.00000000
  15        -0.00000000
  16         0.04098339
  17         0.79062757
  18        -1.56156594
  19        -0.00990508
  20         0.00000000
  21         0.00000000
  22        -0.37790442
  23        -0.00000000
  24        -0.00000000
  25         0.09172339
  26         0.15521490
  27        -0.04173020
  28         0.00000000
  29         0.00000000
  30        -0.00000000
  31         0.38054953
  32         0.26944596
  33         0.38054953
  34         0.26944596
  35         0.38054953
  36         0.26944596
  37         0.38054953
  38         0.26944596
Sym=    19a  
Ene=     0.8945
Spin= Alpha
Occup=    0.00000
   1        -0.00000000
   2         0.00000000
   3        -0.00000000
   4         0.00000000
   5        -0.00000000
   6         0.82056048
   7         0.00000000
   8         0.00000000
   9        -1.08230275
  10         0.00000000
  11         0.00000000
  12        -0.00000000
  13         0.00000000
  14        -0.03523240
  15        -0.00000000
  16        -0.00000000
  17         0.00000000
  18        -0.00000000
  19        -0.00000000
  20         0.00000000
  21        -0.82056048
  22        -0.00000000
  23        -0.00000000
  24         1.08230275
  25         0.00000000
  26         0.00000000
  27        -0.00000000
  28        -0.00000000
  29        -0.03523240
  30        -0.00000000
  31        -0.00000000
  32        -0.00000000
  33         0.00000000
  34         0.00000000
  35        -0.00000000
  36         0.00000000
  37         0.00000000
  38        -0.00000000
Sym=    20a  
Ene=     0.9665
Spin= Alpha
Occup=    0.00000
   1         0.09861584
   2         0.09813305
   3        -1.24169392
   4        -0.57959971
   5         0.00000000
   6        -0.00000000
   7         0.32303776
   8        -0.00000000
   9         0.00000000
  10         0.18443986
  11         0.05214725
  12        -0.09254855
  13        -0.00000000
  14         0.00000000
  15         0.00000000
  16        -0.09861584
  17        -0.09813305
  18         1.24169392
  19        -0.57959971
  20        -0.00000000
  21        -0.00000000
  22         0.32303776
  23         0.00000000
  24         0.00000000
  25        -0.18443986
  26        -0.05214725
  27         0.09254855
  28         0.00000000
  29         0.00000000
  30        -0.00000000
  31         0.38604166
  32         0.11079039
  33         0.38604166
  34         0.11079039
  35        -0.38604166
  36        -0.11079039
  37        -0.38604166
  38        -0.11079039
Sym=    21a  
Ene=     1.1106
Spin= Alpha
Occup=    0.00000
   1         0.00000000
   2         0.00000000
   3        -0.00000000
   4         0.00000000
   5        -0.68620842
   6         0.00000000
   7        -0.00000000
   8         1.10750459
   9        -0.00000000
  10        -0.00000000
  11         0.00000000
  12         0.00000000
  13        -0.18811730
  14        -0.00000000
  15         0.00000000
  16         0.00000000
  17        -0.00000000
  18         0.00000000
  19         0.00000000
  20        -0.68620842
  21        -0.00000000
  22        -0.00000000
  23         1.10750459
  24         0.00000000
  25         0.00000000
  26        -0.00000000
  27        -0.00000000
  28         0.18811730
  29        -0.00000000
  30         0.00000000
  31         0.37889979
  32        -1.06919535
  33        -0.37889979
  34         1.06919535
  35         0.37889979
  36        -1.06919535
  37        -0.37889979
  38         1.06919535
Sym=    22a  
Ene=     1.1643
Spin= Alpha
Occup=    0.00000
   1        -0.00000000
   2         0.00000000
   3        -0.00000000
   4        -0.00000000
   5         0.92810932
   6         0.00000000
   7         0.00000000
   8        -2.99111796
   9        -0.00000000
  10         0.00000000
  11        -0.00000000
  12         0.00000000
  13        -0.00983249
  14        -0.00000000
  15        -0.00000000
  16         0.00000000
  17        -0.00000000
  18         0.00000000
  19        -0.00000000
  20        -0.92810932
  21        -0.00000000
  22         0.00000000
  23         2.99111796
  24         0.00000000
  25        -0.00000000
  26         0.00000000
  27        -0.00000000
  28        -0.00983249
  29         0.00000000
  30        -0.00000000
  31        -0.14673593
  32         1.52005268
  33         0.14673593
  34        -1.52005268
  35         0.14673593
  36        -1.52005268
  37        -0.14673593
  38         1.52005268
Sym=    23a  
Ene=     1.2128
Spin= Alpha
Occup=    0.00000
   1        -0.01779961
   2         0.92824134
   3        -1.73840821
   4        -0.37447543
   5        -0.00000000
   6        -0.00000000
   7         0.49693112
   8         0.00000000
   9        -0.00000000
  10         0.10022197
  11        -0.06002344
  12         0.11938094
  13        -0.00000000
  14         0.00000000
  15         0.00000000
  16        -0.01779961
  17         0.92824134
  18        -1.73840821
  19         0.37447543
  20         0.00000000
  21        -0.00000000
  22        -0.49693112
  23        -0.00000000
  24        -0.00000000
  25         0.10022197
  26        -0.06002344
  27         0.11938094
  28         0.00000000
  29         0.00000000
  30        -0.00000000
  31        -0.45387758
  32         0.87487905
  33        -0.45387758
  34         0.87487905
  35        -0.45387758
  36         0.87487905
  37        -0.45387758
  38         0.87487905
Sym=    24a  
Ene=     1.2218
Spin= Alpha
Occup=    0.00000
   1        -0.01724604
   2         0.58910221
   3        -1.00677855
   4        -0.58657689
   5        -0.00000000
   6        -0.00000000
   7         1.06320939
   8         0.00000000
   9         0.00000000
  10         0.14578740
  11        -0.09383278
  12         0.10083121
  13        -0.00000000
  14         0.00000000
  15         0.00000000
  16         0.01724604
  17        -0.58910221
  18         1.00677855
  19        -0.58657689
  20         0.00000000
  21        -0.00000000
  22         1.06320940
  23        -0.00000000
  24        -0.00000000
  25        -0.14578740
  26         0.09383278
  27        -0.10083121
  28         0.00000000
  29        -0.00000000
  30         0.00000000
  31        -0.46178578
  32         1.00890142
  33        -0.46178578
  34         1.00890142
  35         0.46178578
  36        -1.00890142
  37         0.46178578
  38        -1.00890142
Sym=    25a  
Ene=     1.3451
Spin= Alpha
Occup=    0.00000
   1         0.02910209
   2         1.44707950
   3        -5.56505635
   4         0.35198238
   5        -0.00000000
   6         0.00000000
   7        -2.10068847
   8        -0.00000000
   9        -0.00000000
  10        -0.07127668
  11         0.21137299
  12         0.06074013
  13        -0.00000000
  14        -0.00000000
  15         0.00000000
  16        -0.02910209
  17        -1.44707950
  18         5.56505635
  19         0.35198238
  20         0.00000000
  21         0.00000000
  22        -2.10068847
  23        -0.00000000
  24         0.00000000
  25         0.07127668
  26        -0.21137299
  27        -0.06074013
  28        -0.00000000
  29         0.00000000
  30         0.00000000
  31         0.14068003
  32         0.25900506
  33         0.14068003
  34         0.25900506
  35        -0.14068003
  36        -0.25900506
  37        -0.14068003
  38        -0.25900506
Sym=    26a  
Ene=     1.4866
Spin= Alpha
Occup=    0.00000
   1        -0.00000000
   2        -0.00000000
   3         0.00000000
   4        -0.00000000
   5         0.01910390
   6         0.00000000
   7         0.00000000
   8        -2.59854475
   9        -0.00000000
  10         0.00000000
  11        -0.00000000
  12        -0.00000000
  13        -0.16746305
  14         0.00000000
  15         0.00000000
  16         0.00000000
  17         0.00000000
  18        -0.00000000
  19        -0.00000000
  20        -0.01910390
  21         0.00000000
  22         0.00000000
  23         2.59854475
  24         0.00000000
  25         0.00000000
  26         0.00000000
  27         0.00000000
  28        -0.16746305
  29        -0.00000000
  30         0.00000000
  31         0.70220763
  32         0.68755740
  33        -0.70220763
  34        -0.68755740
  35        -0.70220763
  36        -0.68755740
  37         0.70220763
  38         0.68755740
Sym=    27a  
Ene=     1.7481
Spin= Alpha
Occup=    0.00000
   1        -0.00000000
   2        -0.00000000
   3         0.00000000
   4        -0.00000000
   5        -0.00000000
   6         0.19988789
   7         0.00000000
   8        -0.00000000
   9        -0.04763428
  10        -0.00000000
  11        -0.00000000
  12         0.00000000
  13         0.00000000
  14        -0.61640359
  15        -0.00000000
  16         0.00000000
  17         0.00000000
  18        -0.00000000
  19        -0.00000000
  20         0.00000000
  21         0.19988789
  22         0.00000000
  23         0.00000000
  24        -0.04763428
  25         0.00000000
  26        -0.00000000
  27         0.00000000
  28        -0.00000000
  29         0.61640359
  30        -0.00000000
  31        -0.00000000
  32         0.00000000
  33        -0.00000000
  34         0.00000000
  35         0.00000000
  36        -0.00000000
  37         0.00000000
  38        -0.00000000
Sym=    28a  
Ene=     1.8154
Spin= Alpha
Occup=    0.00000
   1         0.00000000
   2        -0.00000000
   3         0.00000000
   4        -0.00000000
   5         0.00000000
   6         0.00000000
   7         0.00000000
   8        -0.00000000
   9        -0.00000000
  10         0.00000000
  11        -0.00000000
  12        -0.00000000
  13         0.00000000
  14        -0.00000000
  15         0.67916786
  16        -0.00000000
  17         0.00000000
  18        -0.00000000
  19         0.00000000
  20         0.00000000
  21        -0.00000000
  22         0.00000000
  23         0.00000000
  24        -0.00000000
  25         0.00000000
  26        -0.00000000
  27         0.00000000
  28        -0.00000000
  29         0.00000000
  30         0.67916786
  31        -0.00000000
  32         0.00000000
  33         0.00000000
  34        -0.00000000
  35         0.00000000
  36        -0.00000000
  37        -0.00000000
  38         0.00000000
Sym=    29a  
Ene=     2.1378
Spin= Alpha
Occup=    0.00000
   1        -0.00000000
   2         0.00000000
   3        -0.00000000
   4        -0.00000000
   5        -0.00000000
   6        -0.00000000
   7        -0.00000000