[Molden Format]
[N_Atoms]
                    2
[Atoms] (AU)
N1          1      7           0.00000000      0.00000000      0.00000000
N2          2      7          19.84212431      0.00000000      0.00000000
[Charge] (Mulliken)
   0.0000000000000000     
   0.0000000000000000     
[GTO] (AU)
   1
   s   6
  4.173511460E+03  1.834772160E-03
  6.274579110E+02  1.399462700E-02
  1.429020930E+02  6.858655181E-02
  4.023432930E+01  2.322408730E-01
  1.282021290E+01  4.690699481E-01
  4.390437010E+00  3.604551991E-01
   s   3
  1.162636186E+01 -1.149611817E-01
  2.716279807E+00 -1.691174786E-01
  7.722183966E-01  1.145851947E+00
   s   1
  2.120314975E-01  1.000000000E+00
   p   3
  1.162636186E+01  6.757974388E-02
  2.716279807E+00  3.239072959E-01
  7.722183966E-01  7.408951398E-01
   p   1
  2.120314975E-01  1.000000000E+00
   d   1
  8.000000000E-01  1.000000000E+00
 
   2
   s   6
  4.173511460E+03  1.834772160E-03
  6.274579110E+02  1.399462700E-02
  1.429020930E+02  6.858655181E-02
  4.023432930E+01  2.322408730E-01
  1.282021290E+01  4.690699481E-01
  4.390437010E+00  3.604551991E-01
   s   3
  1.162636186E+01 -1.149611817E-01
  2.716279807E+00 -1.691174786E-01
  7.722183966E-01  1.145851947E+00
   s   1
  2.120314975E-01  1.000000000E+00
   p   3
  1.162636186E+01  6.757974388E-02
  2.716279807E+00  3.239072959E-01
  7.722183966E-01  7.408951398E-01
   p   1
  2.120314975E-01  1.000000000E+00
   d   1
  8.000000000E-01  1.000000000E+00
 
[MO]
Sym=     1a  
Ene=   -15.6340
Spin= Alpha
Occup=    2.00000
   1         0.00000778
   2         0.00000015
   3         0.00000001
   4        -0.00000000
   5        -0.00000000
   6         0.00000000
   7         0.00000000
   8         0.00000000
   9        -0.00000000
  10         0.00000000
  11         0.00000000
  12         0.00000000
  13        -0.00000000
  14        -0.00000000
  15        -0.00000000
  16         0.99508148
  17         0.01980904
  18         0.00176213
  19         0.00000000
  20        -0.00000000
  21         0.00000000
  22        -0.00000000
  23         0.00000000
  24         0.00000000
  25         0.00000000
  26         0.00000000
  27         0.00000000
  28         0.00000000
  29        -0.00000000
  30         0.00000000
Sym=     2a  
Ene=   -15.6340
Spin= Alpha
Occup=    2.00000
   1         0.99508148
   2         0.01980904
   3         0.00176213
   4        -0.00000000
   5        -0.00000000
   6         0.00000000
   7        -0.00000000
   8         0.00000000
   9        -0.00000000
  10         0.00000000
  11         0.00000000
  12         0.00000000
  13         0.00000000
  14        -0.00000000
  15         0.00000000
  16        -0.00000778
  17        -0.00000015
  18        -0.00000001
  19        -0.00000000
  20        -0.00000000
  21        -0.00000000
  22         0.00000000
  23        -0.00000000
  24         0.00000000
  25         0.00000000
  26        -0.00000000
  27        -0.00000000
  28         0.00000000
  29        -0.00000000
  30         0.00000000
Sym=     3a  
Ene=    -0.9450
Spin= Alpha
Occup=    2.00000
   1        -0.00000182
   2         0.00000413
   3         0.00000437
   4         0.00000000
   5        -0.00000000
   6        -0.00000000
   7        -0.00000000
   8         0.00000000
   9        -0.00000000
  10         0.00000000
  11        -0.00000000
  12         0.00000000
  13        -0.00000000
  14        -0.00000000
  15         0.00000000
  16        -0.23271180
  17         0.52709144
  18         0.55779821
  19        -0.00000000
  20         0.00000000
  21         0.00000000
  22        -0.00000000
  23         0.00000000
  24        -0.00000000
  25         0.00000000
  26         0.00000000
  27         0.00000000
  28         0.00000000
  29        -0.00000000
  30        -0.00000000
Sym=     4a  
Ene=    -0.9450
Spin= Alpha
Occup=    2.00000
   1        -0.23271180
   2         0.52709144
   3         0.55779821
   4         0.00000000
   5        -0.00000000
   6        -0.00000000
   7         0.00000000
   8         0.00000000
   9        -0.00000000
  10         0.00000000
  11         0.00000000
  12         0.00000000
  13         0.00000000
  14        -0.00000000
  15        -0.00000000
  16         0.00000182
  17        -0.00000413
  18        -0.00000437
  19        -0.00000000
  20         0.00000000
  21        -0.00000000
  22         0.00000000
  23         0.00000000
  24        -0.00000000
  25         0.00000000
  26        -0.00000000
  27        -0.00000000
  28         0.00000000
  29         0.00000000
  30         0.00000000
Sym=     5a  
Ene=    -0.5703
Spin= Alpha
Occup=    1.00000
   1         0.00000000
   2        -0.00000000
   3        -0.00000000
   4        -0.36705345
   5         0.34229593
   6        -0.37573738
   7        -0.21301759
   8         0.19864969
   9        -0.21805726
  10         0.00000000
  11         0.00000000
  12         0.00000000
  13         0.00000000
  14        -0.00000000
  15        -0.00000000
  16        -0.00000000
  17         0.00000000
  18        -0.00000000
  19        -0.18877710
  20         0.29457579
  21         0.01004205
  22        -0.10955582
  23         0.17095555
  24         0.00582785
  25        -0.00000000
  26         0.00000000
  27         0.00000000
  28         0.00000000
  29         0.00000000
  30        -0.00000000
Sym=     6a  
Ene=    -0.5703
Spin= Alpha
Occup=    1.00000
   1         0.00000000
   2        -0.00000000
   3        -0.00000000
   4        -0.26210729
   5        -0.55914227
   6         0.05202036
   7        -0.15211262
   8        -0.32449535
   9         0.03018975
  10         0.00000000
  11         0.00000000
  12         0.00000000
  13        -0.00000000
  14         0.00000000
  15         0.00000000
  16         0.00000000
  17        -0.00000000
  18         0.00000000
  19        -0.06935491
  20         0.34764456
  21        -0.07663278
  22        -0.04024976
  23         0.20175374
  24        -0.04447344
  25         0.00000000
  26        -0.00000000
  27        -0.00000000
  28         0.00000000
  29         0.00000000
  30        -0.00000000
Sym=     7a  
Ene=    -0.5703
Spin= Alpha
Occup=    1.00000
   1        -0.00000000
   2         0.00000000
   3         0.00000000
   4         0.46749950
   5        -0.08109524
   6        -0.39921710
   7         0.27131094
   8        -0.04706321
   9        -0.23168360
  10        -0.00000000
  11        -0.00000000
  12        -0.00000000
  13        -0.00000000
  14         0.00000000
  15        -0.00000000
  16         0.00000000
  17        -0.00000000
  18         0.00000000
  19         0.15953956
  20         0.27565533
  21        -0.17216446
  22         0.09258797
  23         0.15997516
  24        -0.09991476
  25         0.00000000
  26        -0.00000000
  27        -0.00000000
  28        -0.00000000
  29         0.00000000
  30         0.00000000
Sym=     8a  
Ene=    -0.5703
Spin= Alpha
Occup=    1.00000
   1        -0.00000000
   2         0.00000000
   3        -0.00000000
   4        -0.05213974
   5         0.12185838
   6         0.16765283
   7        -0.03025903
   8         0.07071989
   9         0.09729646
  10         0.00000000
  11         0.00000000
  12         0.00000000
  13        -0.00000000
  14         0.00000000
  15        -0.00000000
  16        -0.00000000
  17         0.00000000
  18        -0.00000000
  19         0.49148576
  20         0.30984112
  21         0.36380021
  22         0.28523124
  23         0.17981470
  24         0.21112959
  25        -0.00000000
  26         0.00000000
  27         0.00000000
  28         0.00000000
  29         0.00000000
  30        -0.00000000
Sym=     9a  
Ene=    -0.5703
Spin= Alpha
Occup=    1.00000
   1        -0.00000000
   2         0.00000000
   3         0.00000000
   4         0.25397122
   5         0.19540453
   6         0.39188607
   7         0.14739089
   8         0.11340202
   9         0.22742907
  10        -0.00000000
  11        -0.00000000
  12        -0.00000000
  13         0.00000000
  14         0.00000000
  15        -0.00000000
  16         0.00000000
  17        -0.00000000
  18         0.00000000
  19        -0.35015971
  20         0.36652200
  21        -0.04875085
  22        -0.20321340
  23         0.21270916
  24        -0.02829231
  25         0.00000000
  26        -0.00000000
  27         0.00000000
  28         0.00000000
  29         0.00000000
  30        -0.00000000
Sym=    10a  
Ene=    -0.5703
Spin= Alpha
Occup=    1.00000
   1        -0.00000000
   2         0.00000000
   3         0.00000000
   4         0.16242436
   5        -0.16177277
   6        -0.17505626
   7         0.09426214
   8        -0.09388400
   9        -0.10159300
  10        -0.00000000
  11        -0.00000000
  12        -0.00000000
  13        -0.00000000
  14         0.00000000
  15         0.00000000
  16        -0.00000000
  17         0.00000000
  18        -0.00000000
  19        -0.29243120
  20        -0.04035421
  21         0.58757517
  22        -0.16971095
  23        -0.02341936
  24         0.34099624
  25         0.00000000
  26         0.00000000
  27        -0.00000000
  28         0.00000000
  29         0.00000000
  30        -0.00000000
Sym=    11a  
Ene=     4.3454
Spin= Alpha
Occup=    0.00000
   1         0.00442211
   2         0.04670283
   3        -0.11490698
   4         0.00000000
   5        -0.00000000
   6         0.00000000
   7        -0.00000000
   8         0.00000000
   9        -0.00000000
  10         0.03066309
  11         0.03066309
  12         0.03066309
  13         0.00000000
  14        -0.00000000
  15         0.00000000
  16         0.08013695
  17         0.84634357
  18        -2.08233155
  19        -0.00000000
  20         0.00000000
  21         0.00000000
  22        -0.00000000
  23        -0.00000000
  24        -0.00000000
  25         0.55567319
  26         0.55567319
  27         0.55567319
  28        -0.00000000
  29         0.00000000
  30         0.00000000
Sym=    12a  
Ene=     4.3454
Spin= Alpha
Occup=    0.00000
   1         0.08013695
   2         0.84634357
   3        -2.08233155
   4        -0.00000000
   5        -0.00000000
   6         0.00000000
   7         0.00000000
   8         0.00000000
   9        -0.00000000
  10         0.55567319
  11         0.55567319
  12         0.55567319
  13         0.00000000
  14        -0.00000000
  15        -0.00000000
  16        -0.00442211
  17        -0.04670283
  18         0.11490698
  19        -0.00000000
  20         0.00000000
  21         0.00000000
  22         0.00000000
  23        -0.00000000
  24        -0.00000000
  25        -0.03066309
  26        -0.03066309
  27        -0.03066309
  28         0.00000000
  29         0.00000000
  30         0.00000000
Sym=    13a  
Ene=     5.4147
Spin= Alpha
Occup=    0.00000
   1        -0.00000000
   2         0.00000000
   3        -0.00000000
   4         0.02186183
   5         0.02677515
   6         0.08554355
   7        -0.02587240
   8        -0.03168708
   9        -0.10123659
  10         0.00000000
  11         0.00000000
  12        -0.00000000
  13         0.00000000
  14         0.00000000
  15         0.00000000
  16         0.00000000
  17         0.00000000
  18        -0.00000000
  19        -0.15999351
  20        -0.89829839
  21         0.11226639
  22         0.18934447
  23         1.06309209
  24        -0.13286176
  25         0.00000000
  26         0.00000000
  27        -0.00000000
  28        -0.00000000
  29        -0.00000000
  30         0.00000000
Sym=    14a  
Ene=     5.4147
Spin= Alpha
Occup=    0.00000
   1        -0.00000000
   2        -0.00000000
   3         0.00000000
   4         0.07847860
   5         0.10080657
   6         0.35422788
   7        -0.09287557
   8        -0.11929963
   9        -0.41921132
  10         0.00000000
  11        -0.00000000
  12        -0.00000000
  13         0.00000000
  14        -0.00000000
  15         0.00000000
  16         0.00000000
  17         0.00000000
  18         0.00000000
  19        -0.81792960
  20         0.19351087
  21         0.07348930
  22         0.96797956
  23        -0.22901063
  24        -0.08697098
  25         0.00000000
  26        -0.00000000
  27        -0.00000000
  28         0.00000000
  29         0.00000000
  30        -0.00000000
Sym=    15a  
Ene=     5.4147
Spin= Alpha
Occup=    0.00000
   1         0.00000000
   2        -0.00000000
   3        -0.00000000
   4        -0.01762851
   5         0.33653015
   6         0.02755021
   7         0.02086248
   8        -0.39826692
   9        -0.03260433
  10        -0.00000000
  11         0.00000000
  12         0.00000000
  13         0.00000000
  14        -0.00000000
  15        -0.00000000
  16         0.00000000
  17         0.00000000
  18        -0.00000000
  19        -0.04548909
  20        -0.08643761
  21        -0.85427816
  22         0.05383411
  23         0.10229467
  24         1.01099630
  25        -0.00000000
  26         0.00000000
  27         0.00000000
  28        -0.00000000
  29        -0.00000000
  30         0.00000000
Sym=    16a  
Ene=     5.4147
Spin= Alpha
Occup=    0.00000
   1        -0.00000000
   2        -0.00000000
   3        -0.00000000
   4         0.00741985
   5        -0.33736601
   6        -0.75570905
   7        -0.00878103
   8         0.39925612
   9         0.89434460
  10         0.00000000
  11         0.00000000
  12        -0.00000000
  13        -0.00000000
  14        -0.00000000
  15         0.00000000
  16         0.00000000
  17         0.00000000
  18        -0.00000000
  19        -0.38717548
  20        -0.02960482
  21        -0.13381279
  22         0.45820319
  23         0.03503585
  24         0.15836088
  25         0.00000000
  26        -0.00000000
  27        -0.00000000
  28        -0.00000000
  29        -0.00000000
  30        -0.00000000
Sym=    17a  
Ene=     5.4147
Spin= Alpha
Occup=    0.00000
   1        -0.00000000
   2        -0.00000000
   3        -0.00000000
   4        -0.01757958
   5        -0.78452549
   6         0.38557817
   7         0.02080458
   8         0.92844744
   9        -0.45631285
  10        -0.00000000
  11         0.00000000
  12         0.00000000
  13        -0.00000000
  14         0.00000000
  15         0.00000000
  16         0.00000000
  17         0.00000000
  18         0.00000000
  19         0.03495494
  20        -0.03019525
  21        -0.29506066
  22        -0.04136746
  23         0.03573460
  24         0.34918982
  25         0.00000000
  26        -0.00000000
  27        -0.00000000
  28        -0.00000000
  29        -0.00000000
  30         0.00000000
Sym=    18a  
Ene=     5.4147
Spin= Alpha
Occup=    0.00000
   1        -0.00000000
   2        -0.00000000
   3         0.00000000
   4        -0.91996876
   5         0.01505748
   6         0.01825956
   7         1.08873790
   8        -0.01781979
   9        -0.02160929
  10        -0.00000000
  11        -0.00000000
  12        -0.00000000
  13         0.00000000
  14        -0.00000000
  15         0.00000000
  16         0.00000000
  17         0.00000000
  18        -0.00000000
  19        -0.07649509
  20        -0.00284473
  21         0.02986570
  22         0.09052819
  23         0.00336660
  24        -0.03534459
  25        -0.00000000
  26         0.00000000
  27         0.00000000
  28         0.00000000
  29         0.00000000
  30        -0.00000000
Sym=    19a  
Ene=     5.8000
Spin= Alpha
Occup=    0.00000
   1        -0.00000000
   2         0.00000000
   3         0.00000000
   4        -0.00000000
   5         0.00000000
   6        -0.00000000
   7         0.00000000
   8        -0.00000000
   9         0.00000000
  10        -0.02661914
  11         0.19443382
  12        -0.16781468
  13         0.00000000
  14         0.25796841
  15         0.41439127
  16        -0.00000000
  17         0.00000000
  18         0.00000000
  19         0.00000000
  20         0.00000000
  21         0.00000000
  22        -0.00000000
  23        -0.00000000
  24        -0.00000000
  25         0.20081996
  26        -0.10871775
  27        -0.09210220
  28        -0.33933695
  29         0.27718891
  30         0.69633205
Sym=    20a  
Ene=     5.8000
Spin= Alpha
Occup=    0.00000
   1         0.00000000
   2        -0.00000000
   3        -0.00000000
   4        -0.00000000
   5         0.00000000
   6        -0.00000000
   7         0.00000000
   8        -0.00000000
   9         0.00000000
  10        -0.25524726
  11        -0.04610447
  12         0.30135174
  13         0.00000000
  14         0.33273980
  15        -0.13860599
  16        -0.00000000
  17        -0.00000000
  18        -0.00000000
  19        -0.00000000
  20        -0.00000000
  21         0.00000000
  22         0.00000000
  23         0.00000000
  24        -0.00000000
  25        -0.00147594
  26         0.03553660
  27        -0.03406065
  28         0.38856299
  29        -0.63733399
  30         0.45374763
Sym=    21a  
Ene=     5.8000
Spin= Alpha
Occup=    0.00000
   1         0.00000000
   2        -0.00000000
   3         0.00000000
   4        -0.00000000
   5         0.00000000
   6        -0.00000000
   7        -0.00000000
   8        -0.00000000
   9         0.00000000
  10        -0.19736027
  11        -0.04387286
  12         0.24123313
  13         0.00000000
  14         0.40748724
  15        -0.26311986
  16         0.00000000
  17         0.00000000
  18         0.00000000
  19        -0.00000000
  20        -0.00000000
  21        -0.00000000
  22         0.00000000
  23         0.00000000
  24         0.00000000
  25         0.12568432
  26        -0.07822280
  27        -0.04746151
  28         0.47786731
  29         0.67351384
  30        -0.02420431
Sym=    22a  
Ene=     5.8000
Spin= Alpha
Occup=    0.00000
   1         0.00000000
   2        -0.00000000
   3         0.00000000
   4         0.00000000
   5        -0.00000000
   6        -0.00000000
   7        -0.00000000
   8         0.00000000
   9         0.00000000
  10         0.07500164
  11        -0.28089357
  12         0.20589193
  13         0.00000000
  14         0.09470009
  15         0.01973744
  16         0.00000000
  17         0.00000000
  18         0.00000000
  19        -0.00000000
  20         0.00000000
  21        -0.00000000
  22         0.00000000
  23        -0.00000000
  24         0.00000000
  25        -0.74816549
  26         0.83696590
  27        -0.08880041
  28        -0.13209507
  29         0.15606505
  30         0.13708492
Sym=    23a  
Ene=     5.8000
Spin= Alpha
Occup=    0.00000
   1        -0.00000000
   2        -0.00000000
   3         0.00000000
   4         0.00000000
   5        -0.00000000
   6         0.00000000
   7        -0.00000000
   8         0.00000000
   9        -0.00000000
  10        -0.05053097
  11         0.02466599
  12         0.02586498
  13        -0.00000000
  14        -0.77437511
  15         0.02166099
  16         0.00000000
  17        -0.00000000
  18         0.00000000
  19         0.00000000
  20        -0.00000000
  21        -0.00000000
  22        -0.00000000
  23         0.00000000
  24         0.00000000
  25        -0.02330869
  26         0.06175351
  27        -0.03844482
  28         0.43137586
  29         0.17688297
  30         0.41959212
Sym=    24a  
Ene=     5.8000
Spin= Alpha
Occup=    0.00000
   1        -0.00000000
   2        -0.00000000
   3         0.00000000
   4         0.00000000
   5        -0.00000000
   6        -0.00000000
   7        -0.00000000
   8         0.00000000
   9         0.00000000
  10         0.00267522
  11        -0.07854002
  12         0.07586481
  13         0.00000000
  14         0.03292898
  15         0.08475599
  16         0.00000000
  17        -0.00000000
  18         0.00000000
  19        -0.00000000
  20        -0.00000000
  21        -0.00000000
  22         0.00000000
  23         0.00000000
  24        -0.00000000
  25        -0.52899480
  26        -0.45558984
  27         0.98458464
  28         0.02320500
  29         0.05590385
  30         0.09439951
Sym=    25a  
Ene=     5.8000
Spin= Alpha
Occup=    0.00000
   1         0.00000000
   2        -0.00000000
   3        -0.00000000
   4         0.00000000
   5         0.00000000
   6        -0.00000000
   7        -0.00000000
   8        -0.00000000
   9         0.00000000
  10         0.05355401
  11        -0.16590463
  12         0.11235062
  13        -0.00000000
  14         0.09212877
  15         0.84534201
  16        -0.00000000
  17         0.00000000
  18         0.00000000
  19         0.00000000
  20        -0.00000000
  21        -0.00000000
  22        -0.00000000
  23         0.00000000
  24         0.00000000
  25         0.01900720
  26         0.05293501
  27        -0.07194221
  28         0.40664284
  29        -0.04906205
  30        -0.27369257
Sym=    26a  
Ene=     5.8000
Spin= Alpha
Occup=    0.00000
   1        -0.00000000
   2         0.00000000
   3        -0.00000000
   4         0.00000000
   5        -0.00000000
   6        -0.00000000
   7        -0.00000000
   8        -0.00000000
   9         0.00000000
  10        -0.35660165
  11         0.89993084
  12        -0.54332919
  13         0.00000000
  14         0.08827808
  15         0.03293773
  16         0.00000000
  17         0.00000000
  18        -0.00000000
  19        -0.00000000
  20         0.00000000
  21         0.00000000
  22         0.00000000
  23        -0.00000000
  24        -0.00000000
  25        -0.31980442
  26         0.25600725
  27         0.06379717
  28         0.20436052
  29        -0.02779723
  30        -0.11179665
Sym=    27a  
Ene=     5.8000
Spin= Alpha
Occup=    0.00000
   1        -0.00000000
   2         0.00000000
   3        -0.00000000
   4        -0.00000000
   5         0.00000000
   6         0.00000000
   7        -0.00000000
   8         0.00000000
   9        -0.00000000
  10         0.87004059
  11        -0.18726192
  12        -0.68277867
  13         0.00000000
  14         0.17521617
  15        -0.12690880
  16         0.00000000
  17         0.00000000
  18        -0.00000000
  19         0.00000000
  20         0.00000000
  21        -0.00000000
  22        -0.00000000
  23        -0.00000000
  24         0.00000000
  25        -0.03325785
  26         0.02386297
  27         0.00939488
  28         0.30711194
  29        -0.03744198
  30         0.13221838
Sym=    28a  
Ene=     5.8000
Spin= Alpha
Occup=    0.00000
   1        -0.00000000
   2        -0.00000000
   3        -0.00000000
   4         0.00000000
   5        -0.00000000
   6        -0.00000000
   7        -0.00000000
   8         0.00000000
   9         0.00000000
  10         0.00000000
  11        -0.00000000
  12         0.00000000
  13         1.00000000
  14        -0.00000000
  15         0.00000000
  16        -0.00000000
  17         0.00000000
  18         0.00000000
  19         0.00000000
  20         0.00000000
  21         0.00000000
  22        -0.00000000
  23         0.00000000
  24        -0.00000000
  25        -0.00000000
  26         0.00000000
  27        -0.00000000
  28        -0.00000000
  29        -0.00000000
  30        -0.00000000
Sym=    29a  
Ene=    11.9160
Spin= Alpha
Occup=    0.00000
   1         0.00294051
   2        -0.01364448
   3        -0.00751171
   4        -0.00000000
   5        -0.00000000
   6        -0.00000000
   7         0.00000000
   8         0.00000000
   9         0.00000000
  10         0.00927592
  11         0.00927592
  12         0.00927592
  13         0.00000000
  14         0.00000000
  15         0.00000000
  16         0.37948413
  17        -1.76087326
  18        -0.96941581
  19        -0.00000000
  20        -0.00000000
  21         0.00000000
  22        -0.00000000
  23         0.00000000
  24         0.00000000
  25         1.19709341
  26         1.19709341
  27         1.19709341
  28         0.00000000
  29         0.00000000
  30        -0.00000000
Sym=    30a  
Ene=    11.9160
Spin= Alpha
Occup=    0.00000
   1         0.37948413
   2        -1.76087326
   3        -0.96941581
   4         0.00000000
   5         0.00000000
   6         0.00000000
   7         0.00000000
   8        -0.00000000
   9        -0.00000000
  10         1.19709341
  11         1.19709341
  12         1.19709341
  13         0.00000000
  14        -0.00000000
  15        -0.00000000
  16        -0.00294051
  17         0.01364448
  18         0.00751171
  19        -0.00000000
  20         0.00000000
  21         0.00000000
  22        -0.00000000
  23        -0.00000000
  24        -0.00000000
  25        -0.00927592
  26        -0.00927592
  27        -0.00927592
  28         0.00000000
  29         0.00000000
  30        -0.00000000
