[Molden Format]
[N_Atoms]
                    2
[Atoms] (AU)
N1          1      7           0.00000000      0.00000000      0.00000000
N2          2      7          19.84212431      0.00000000      0.00000000
[Charge] (Mulliken)
  -4.4408920985006262E-014
  -4.2632564145606011E-014
[GTO] (AU)
   1
   s   6
  4.173511460E+03  1.834772160E-03
  6.274579110E+02  1.399462700E-02
  1.429020930E+02  6.858655181E-02
  4.023432930E+01  2.322408730E-01
  1.282021290E+01  4.690699481E-01
  4.390437010E+00  3.604551991E-01
   s   3
  1.162636186E+01 -1.149611817E-01
  2.716279807E+00 -1.691174786E-01
  7.722183966E-01  1.145851947E+00
   s   1
  2.120314975E-01  1.000000000E+00
   p   3
  1.162636186E+01  6.757974388E-02
  2.716279807E+00  3.239072959E-01
  7.722183966E-01  7.408951398E-01
   p   1
  2.120314975E-01  1.000000000E+00
   d   1
  8.000000000E-01  1.000000000E+00
 
   2
   s   6
  4.173511460E+03  1.834772160E-03
  6.274579110E+02  1.399462700E-02
  1.429020930E+02  6.858655181E-02
  4.023432930E+01  2.322408730E-01
  1.282021290E+01  4.690699481E-01
  4.390437010E+00  3.604551991E-01
   s   3
  1.162636186E+01 -1.149611817E-01
  2.716279807E+00 -1.691174786E-01
  7.722183966E-01  1.145851947E+00
   s   1
  2.120314975E-01  1.000000000E+00
   p   3
  1.162636186E+01  6.757974388E-02
  2.716279807E+00  3.239072959E-01
  7.722183966E-01  7.408951398E-01
   p   1
  2.120314975E-01  1.000000000E+00
   d   1
  8.000000000E-01  1.000000000E+00
 
[MO]
Sym=     1a  
Ene=   -15.6830
Spin= Alpha
Occup=    2.00000
   1         0.60232519
   2         0.01374133
   3         0.00002053
   4         0.00000001
   5         0.00000000
   6        -0.00000000
   7        -0.00000001
   8        -0.00000000
   9         0.00000000
  10        -0.00201839
  11        -0.00232374
  12        -0.00175162
  13        -0.00000000
  14         0.00000000
  15        -0.00022669
  16         0.79238656
  17         0.01807735
  18         0.00002700
  19        -0.00000001
  20         0.00000000
  21        -0.00000000
  22         0.00000001
  23         0.00000000
  24         0.00000000
  25        -0.00265529
  26        -0.00230434
  27        -0.00305699
  28         0.00000000
  29        -0.00000000
  30         0.00029822
Sym=     2a  
Ene=   -15.6830
Spin= Alpha
Occup=    2.00000
   1        -0.79238656
   2        -0.01807735
   3        -0.00002700
   4        -0.00000001
   5        -0.00000000
   6         0.00000000
   7         0.00000001
   8         0.00000000
   9         0.00000000
  10         0.00265529
  11         0.00305699
  12         0.00230434
  13         0.00000000
  14        -0.00000000
  15         0.00029822
  16         0.60232519
  17         0.01374133
  18         0.00002053
  19        -0.00000001
  20         0.00000000
  21        -0.00000000
  22         0.00000001
  23         0.00000000
  24         0.00000000
  25        -0.00201839
  26        -0.00175162
  27        -0.00232374
  28         0.00000000
  29        -0.00000000
  30         0.00022669
Sym=     3a  
Ene=    -0.9616
Spin= Alpha
Occup=    2.00000
   1        -0.16035414
   2         0.37068032
   3         0.39802338
   4        -0.00000102
   5         0.00000000
   6        -0.00000000
   7        -0.00000046
   8         0.00000000
   9        -0.00000000
  10        -0.00071447
  11        -0.00251473
  12         0.00100323
  13        -0.00000000
  14         0.00000000
  15        -0.00139390
  16        -0.16040961
  17         0.37080854
  18         0.39816106
  19         0.00000102
  20         0.00000000
  21        -0.00000000
  22         0.00000046
  23         0.00000000
  24        -0.00000000
  25        -0.00071472
  26         0.00100358
  27        -0.00251560
  28        -0.00000000
  29        -0.00000000
  30         0.00139437
Sym=     4a  
Ene=    -0.9616
Spin= Alpha
Occup=    2.00000
   1         0.16040961
   2        -0.37080854
   3        -0.39816106
   4         0.00000110
   5        -0.00000000
   6         0.00000000
   7         0.00000051
   8        -0.00000000
   9         0.00000000
  10         0.00071471
  11         0.00251560
  12        -0.00100357
  13         0.00000000
  14        -0.00000000
  15         0.00139438
  16        -0.16035414
  17         0.37068032
  18         0.39802338
  19         0.00000110
  20         0.00000000
  21        -0.00000000
  22         0.00000051
  23         0.00000000
  24        -0.00000000
  25        -0.00071447
  26         0.00100323
  27        -0.00251473
  28        -0.00000000
  29        -0.00000000
  30         0.00139389
Sym=     5a  
Ene=    -0.4514
Spin= Alpha
Occup=    2.00000
   1        -0.00000000
   2        -0.00000000
   3         0.00000000
   4         0.00000000
   5        -0.00025432
   6         0.00082005
   7         0.00000000
   8        -0.00018740
   9         0.00060424
  10         0.00000000
  11        -0.00000000
  12        -0.00000000
  13        -0.00000000
  14         0.00000000
  15        -0.00000000
  16         0.00000000
  17        -0.00000000
  18         0.00000000
  19        -0.00000007
  20         0.62866877
  21         0.19497140
  22        -0.00000005
  23         0.46322482
  24         0.14366165
  25        -0.00000000
  26         0.00000000
  27        -0.00000000
  28        -0.00000053
  29        -0.00000017
  30         0.00000000
Sym=     6a  
Ene=    -0.4514
Spin= Alpha
Occup=    2.00000
   1        -0.00000000
   2         0.00000000
   3        -0.00000000
   4         0.00000014
   5        -0.19497220
   6         0.62866852
   7         0.00000010
   8        -0.14366223
   9         0.46322463
  10         0.00000000
  11         0.00000000
  12        -0.00000000
  13        -0.00000017
  14         0.00000053
  15         0.00000000
  16         0.00000000
  17         0.00000000
  18        -0.00000000
  19         0.00000000
  20        -0.00082005
  21        -0.00025432
  22         0.00000000
  23        -0.00060424
  24        -0.00018739
  25         0.00000000
  26         0.00000000
  27         0.00000000
  28         0.00000000
  29         0.00000000
  30         0.00000000
Sym=     7a  
Ene=    -0.1952
Spin= Alpha
Occup=    1.00000
   1         0.00000030
   2        -0.00000054
   3        -0.00000099
   4        -0.48725167
   5         0.00000008
   6         0.00000013
   7        -0.31846934
   8         0.00000005
   9         0.00000009
  10        -0.00000075
  11         0.00000048
  12         0.00000042
  13         0.00000000
  14         0.00000000
  15         0.00000002
  16         0.00000030
  17        -0.00000054
  18        -0.00000099
  19         0.48725167
  20         0.00000009
  21        -0.00000013
  22         0.31846934
  23         0.00000006
  24        -0.00000009
  25        -0.00000075
  26         0.00000042
  27         0.00000048
  28         0.00000000
  29         0.00000000
  30        -0.00000002
Sym=     8a  
Ene=     0.0000
Spin= Alpha
Occup=    1.00000
   1        -0.00000033
   2         0.00000062
   3         0.00000102
   4         0.48725168
   5        -0.00000008
   6        -0.00000013
   7         0.31846934
   8        -0.00000005
   9        -0.00000009
  10         0.00000079
  11        -0.00000049
  12        -0.00000043
  13        -0.00000000
  14        -0.00000000
  15        -0.00000002
  16         0.00000033
  17        -0.00000062
  18        -0.00000102
  19         0.48725168
  20         0.00000009
  21        -0.00000013
  22         0.31846934
  23         0.00000006
  24        -0.00000009
  25        -0.00000079
  26         0.00000043
  27         0.00000049
  28         0.00000000
  29         0.00000000
  30        -0.00000002
Sym=     9a  
Ene=     0.0403
Spin= Alpha
Occup=    0.00000
   1        -0.00000000
   2        -0.00000000
   3        -0.00000000
   4        -0.00000000
   5        -0.00001762
   6        -0.00000547
   7        -0.00000000
   8        -0.00002182
   9        -0.00000677
  10         0.00000000
  11        -0.00000000
  12         0.00000000
  13        -0.00000000
  14        -0.00000000
  15         0.00000000
  16        -0.00000000
  17         0.00000000
  18        -0.00000000
  19         0.00000016
  20        -0.15160176
  21         0.48882704
  22         0.00000020
  23        -0.18765372
  24         0.60507353
  25         0.00000000
  26         0.00000000
  27         0.00000000
  28         0.00000009
  29        -0.00000030
  30         0.00000000
Sym=    10a  
Ene=     0.0403
Spin= Alpha
Occup=    0.00000
   1        -0.00000000
   2         0.00000000
   3        -0.00000000
   4         0.00000012
   5         0.48882685
   6         0.15160238
   7         0.00000014
   8         0.60507329
   9         0.18765448
  10         0.00000000
  11         0.00000000
  12        -0.00000000
  13         0.00000030
  14         0.00000009
  15        -0.00000000
  16        -0.00000000
  17         0.00000000
  18         0.00000000
  19         0.00000000
  20        -0.00000547
  21         0.00001762
  22         0.00000000
  23        -0.00000677
  24         0.00002182
  25         0.00000000
  26        -0.00000000
  27         0.00000000
  28         0.00000000
  29        -0.00000000
  30        -0.00000000
Sym=    11a  
Ene=     0.8452
Spin= Alpha
Occup=    0.00000
   1        -0.00322470
   2         0.85132380
   3        -1.29147762
   4         0.00001469
   5         0.00000000
   6        -0.00000000
   7        -0.00001661
   8        -0.00000000
   9         0.00000000
  10         0.20375690
  11         0.20502191
  12         0.20137567
  13         0.00000000
  14        -0.00000000
  15         0.00144472
  16        -0.00323316
  17         0.85355530
  18        -1.29486287
  19        -0.00001472
  20         0.00000000
  21        -0.00000000
  22         0.00001665
  23        -0.00000000
  24         0.00000000
  25         0.20429099
  26         0.20190352
  27         0.20555932
  28         0.00000000
  29         0.00000000
  30        -0.00144850
Sym=    12a  
Ene=     0.8452
Spin= Alpha
Occup=    0.00000
   1        -0.00323315
   2         0.85355530
   3        -1.29486287
   4         0.00001473
   5         0.00000000
   6        -0.00000000
   7        -0.00001668
   8        -0.00000000
   9         0.00000000
  10         0.20429099
  11         0.20555931
  12         0.20190352
  13         0.00000000
  14        -0.00000000
  15         0.00144851
  16         0.00322470
  17        -0.85132380
  18         1.29147762
  19         0.00001469
  20        -0.00000000
  21         0.00000000
  22        -0.00001664
  23         0.00000000
  24        -0.00000000
  25        -0.20375690
  26        -0.20137567
  27        -0.20502191
  28        -0.00000000
  29        -0.00000000
  30         0.00144472
Sym=    13a  
Ene=     0.9089
Spin= Alpha
Occup=    0.00000
   1        -0.00000000
   2         0.00000000
   3        -0.00000000
   4         0.00000000
   5        -0.00083813
   6         0.00270246
   7        -0.00000000
   8         0.00092253
   9        -0.00297462
  10         0.00000000
  11         0.00000000
  12         0.00000000
  13         0.00000000
  14        -0.00000000
  15         0.00000000
  16        -0.00000000
  17         0.00000000
  18        -0.00000000
  19         0.00000010
  20        -0.92404856
  21        -0.28657864
  22        -0.00000011
  23         1.01710948
  24         0.31543997
  25         0.00000000
  26         0.00000000
  27         0.00000000
  28        -0.00000008
  29        -0.00000002
  30        -0.00000000
Sym=    14a  
Ene=     0.9089
Spin= Alpha
Occup=    0.00000
   1         0.00000000
   2        -0.00000000
   3         0.00000000
   4        -0.00000020
   5         0.28657981
   6        -0.92404819
   7         0.00000023
   8        -0.31544126
   9         1.01710908
  10        -0.00000000
  11        -0.00000000
  12        -0.00000000
  13        -0.00000002
  14         0.00000008
  15        -0.00000000
  16        -0.00000000
  17         0.00000000
  18        -0.00000000
  19         0.00000000
  20        -0.00270246
  21        -0.00083812
  22        -0.00000000
  23         0.00297462
  24         0.00092253
  25         0.00000000
  26         0.00000000
  27         0.00000000
  28        -0.00000000
  29        -0.00000000
  30         0.00000000
Sym=    15a  
Ene=     0.9118
Spin= Alpha
Occup=    0.00000
   1        -0.00000007
   2         0.00001874
   3        -0.00002823
   4        -0.66870647
   5         0.00000010
   6         0.00000018
   7         0.76364156
   8        -0.00000012
   9        -0.00000021
  10         0.00000434
  11         0.00000435
  12         0.00000429
  13        -0.00000000
  14        -0.00000000
  15         0.00000002
  16         0.00000007
  17        -0.00001874
  18         0.00002823
  19        -0.66876253
  20        -0.00000013
  21         0.00000018
  22         0.76370557
  23         0.00000015
  24        -0.00000021
  25        -0.00000434
  26        -0.00000429
  27        -0.00000435
  28         0.00000000
  29        -0.00000000
  30         0.00000002
Sym=    16a  
Ene=     0.9118
Spin= Alpha
Occup=    0.00000
   1         0.00000007
   2        -0.00001872
   3         0.00002819
   4         0.66876253
   5        -0.00000010
   6        -0.00000018
   7        -0.76370557
   8         0.00000012
   9         0.00000021
  10        -0.00000434
  11        -0.00000435
  12        -0.00000429
  13         0.00000000
  14         0.00000000
  15        -0.00000002
  16         0.00000007
  17        -0.00001872
  18         0.00002819
  19        -0.66870648
  20        -0.00000013
  21         0.00000018
  22         0.76364156
  23         0.00000015
  24        -0.00000021
  25        -0.00000434
  26        -0.00000429
  27        -0.00000435
  28         0.00000000
  29        -0.00000000
  30         0.00000002
Sym=    17a  
Ene=     0.9507
Spin= Alpha
Occup=    0.00000
   1        -0.00000000
   2         0.00000000
   3        -0.00000000
   4         0.00000000
   5         0.00582949
   6         0.00180793
   7        -0.00000000
   8        -0.00545023
   9        -0.00169031
  10         0.00000000
  11         0.00000000
  12         0.00000000
  13        -0.00000000
  14        -0.00000000
  15         0.00000000
  16        -0.00000000
  17         0.00000000
  18        -0.00000000
  19         0.00000033
  20        -0.31169788
  21         1.00504342
  22        -0.00000031
  23         0.29141921
  24        -0.93965656
  25         0.00000000
  26         0.00000000
  27         0.00000000
  28        -0.00000000
  29         0.00000000
  30        -0.00000000
Sym=    18a  
Ene=     0.9507
Spin= Alpha
Occup=    0.00000
   1         0.00000000
   2        -0.00000000
   3         0.00000000
   4        -0.00000024
   5        -1.00504302
   6        -0.31169915
   7         0.00000022
   8         0.93965619
   9         0.29142040
  10        -0.00000000
  11        -0.00000000
  12        -0.00000000
  13         0.00000000
  14         0.00000000
  15        -0.00000000
  16         0.00000000
  17         0.00000000
  18        -0.00000000
  19         0.00000000
  20        -0.00180792
  21         0.00582950
  22        -0.00000000
  23         0.00169030
  24        -0.00545024
  25         0.00000000
  26         0.00000000
  27         0.00000000
  28        -0.00000000
  29         0.00000000
  30        -0.00000000
Sym=    19a  
Ene=     1.9841
Spin= Alpha
Occup=    0.00000
   1         0.00282268
   2        -0.01227034
   3        -0.00639519
   4         0.00000041
   5        -0.00000000
   6        -0.00000000
   7         0.00000029
   8         0.00000000
   9        -0.00000000
  10        -0.48600489
  11         0.61619189
  12        -0.10309782
  13         0.00000027
  14         0.00000016
  15         0.28499948
  16        -0.00282945
  17         0.01229975
  18         0.00641052
  19         0.00000041
  20        -0.00000000
  21        -0.00000000
  22         0.00000029
  23         0.00000000
  24        -0.00000000
  25         0.48716971
  26         0.10334555
  27        -0.61766937
  28         0.00000016
  29        -0.00000040
  30         0.28568149
Sym=    20a  
Ene=     1.9841
Spin= Alpha
Occup=    0.00000
   1        -0.00282945
   2         0.01229975
   3         0.00641052
   4        -0.00000039
   5         0.00000000
   6         0.00000000
   7        -0.00000028
   8        -0.00000000
   9         0.00000000
  10         0.48716971
  11        -0.61766874
  12         0.10334492
  13        -0.00000027
  14        -0.00000016
  15        -0.28568255
  16        -0.00282268
  17         0.01227034
  18         0.00639519
  19         0.00000039
  20        -0.00000000
  21        -0.00000000
  22         0.00000028
  23         0.00000000
  24        -0.00000000
  25         0.48600488
  26         0.10309845
  27        -0.61619251
  28         0.00000016
  29        -0.00000040
  30         0.28499843
Sym=    21a  
Ene=     1.9861
Spin= Alpha
Occup=    0.00000
   1        -0.00000000
   2        -0.00000000
   3        -0.00000000
   4         0.00000000
   5        -0.00000000
   6        -0.00000000
   7         0.00000000
   8        -0.00000000
   9        -0.00000000
  10         0.00000000
  11        -0.00000000
  12        -0.00000000
  13         0.00228364
  14         0.00070824
  15        -0.00000000
  16        -0.00000000
  17         0.00000000
  18        -0.00000000
  19        -0.00000000
  20        -0.00000005
  21         0.00000015
  22         0.00000000
  23        -0.00000006
  24         0.00000019
  25         0.00000055
  26        -0.00000010
  27        -0.00000045
  28        -0.29621447
  29         0.95511846
  30         0.00000027
Sym=    22a  
Ene=     1.9861
Spin= Alpha
Occup=    0.00000
   1         0.00000000
   2        -0.00000000
   3         0.00000000
   4        -0.00000000
   5        -0.00000015
   6        -0.00000005
   7         0.00000000
   8        -0.00000019
   9        -0.00000006
  10         0.00000039
  11        -0.00000026
  12        -0.00000014
  13         0.95511809
  14         0.29621567
  15        -0.00000030
  16        -0.00000000
  17        -0.00000000
  18        -0.00000000
  19         0.00000000
  20         0.00000000
  21        -0.00000000
  22        -0.00000000
  23         0.00000000
  24        -0.00000000
  25        -0.00000000
  26         0.00000000
  27         0.00000000
  28         0.00070823
  29        -0.00228364
  30        -0.00000000
Sym=    23a  
Ene=     1.9974
Spin= Alpha
Occup=    0.00000
   1         0.00000000
   2        -0.00000000
   3         0.00000000
   4        -0.00000000
   5        -0.00000000
   6        -0.00000000
   7         0.00000000
   8        -0.00000000
   9        -0.00000000
  10         0.00000000
  11         0.03927189
  12        -0.03927189
  13        -0.00000001
  14        -0.00000002
  15        -0.06607701
  16        -0.00000000
  17         0.00000000
  18        -0.00000000
  19        -0.00000000
  20         0.00000000
  21        -0.00000000
  22         0.00000000
  23         0.00000000
  24        -0.00000000
  25         0.00000000
  26        -0.48845828
  27         0.48845828
  28         0.00000033
  29        -0.00000001
  30         0.82186098
Sym=    24a  
Ene=     1.9974
Spin= Alpha
Occup=    0.00000
   1        -0.00000000
   2         0.00000000
   3        -0.00000000
   4         0.00000000
   5         0.00000000
   6         0.00000000
   7        -0.00000000
   8         0.00000000
   9         0.00000000
  10        -0.00000000
  11        -0.48846008
  12         0.48846008
  13         0.00000013
  14         0.00000028
  15         0.82185955
  16        -0.00000000
  17         0.00000000
  18        -0.00000000
  19        -0.00000000
  20         0.00000000
  21        -0.00000000
  22         0.00000000
  23         0.00000000
  24        -0.00000000
  25         0.00000000
  26        -0.03927175
  27         0.03927175
  28         0.00000003
  29        -0.00000000
  30         0.06607712
Sym=    25a  
Ene=     2.0090
Spin= Alpha
Occup=    0.00000
   1         0.00000000
   2        -0.00000000
   3        -0.00000000
   4         0.00000000
   5         0.00000000
   6        -0.00000000
   7         0.00000000
   8         0.00000000
   9        -0.00000000
  10         0.00000000
  11         0.00000000
  12        -0.00000000
  13        -0.00169053
  14         0.00545094
  15        -0.00000000
  16         0.00000000
  17        -0.00000000
  18         0.00000000
  19        -0.00000000
  20         0.00000027
  21         0.00000008
  22        -0.00000000
  23         0.00000034
  24         0.00000011
  25        -0.00000018
  26         0.00000032
  27        -0.00000014
  28         0.95510564
  29         0.29621049
  30        -0.00000020
Sym=    26a  
Ene=     2.0090
Spin= Alpha
Occup=    0.00000
   1         0.00000000
   2        -0.00000000
   3         0.00000000
   4         0.00000000
   5         0.00000008
   6        -0.00000027
   7         0.00000000
   8         0.00000011
   9        -0.00000034
  10         0.00000037
  11         0.00000008
  12        -0.00000045
  13        -0.29621170
  14         0.95510526
  15        -0.00000007
  16         0.00000000
  17         0.00000000
  18         0.00000000
  19        -0.00000000
  20        -0.00000000
  21        -0.00000000
  22        -0.00000000
  23        -0.00000000
  24        -0.00000000
  25         0.00000000
  26        -0.00000000
  27         0.00000000
  28        -0.00545094
  29        -0.00169052
  30         0.00000000
Sym=    27a  
Ene=     2.0106
Spin= Alpha
Occup=    0.00000
   1         0.00274737
   2        -0.01264230
   3        -0.00529219
   4        -0.00000040
   5         0.00000000
   6        -0.00000000
   7        -0.00000025
   8         0.00000000
   9        -0.00000000
  10         0.51244215
  11         0.11024844
  12        -0.59668545
  13         0.00000000
  14        -0.00000030
  15         0.28010381
  16        -0.00275348
  17         0.01267039
  18         0.00530395
  19        -0.00000040
  20        -0.00000000
  21         0.00000000
  22        -0.00000025
  23        -0.00000000
  24        -0.00000000
  25        -0.51358077
  26         0.59801187
  27        -0.11049402
  28        -0.00000017
  29         0.00000007
  30         0.28072515
Sym=    28a  
Ene=     2.0106
Spin= Alpha
Occup=    0.00000
   1        -0.00275348
   2         0.01267039
   3         0.00530395
   4         0.00000038
   5        -0.00000000
   6         0.00000000
   7         0.00000024
   8        -0.00000000
   9         0.00000000
  10        -0.51358078
  11        -0.11049340
  12         0.59801126
  13        -0.00000000
  14         0.00000030
  15        -0.28072619
  16        -0.00274737
  17         0.01264230
  18         0.00529219
  19        -0.00000038
  20        -0.00000000
  21         0.00000000
  22        -0.00000024
  23        -0.00000000
  24        -0.00000000
  25        -0.51244215
  26         0.59668606
  27        -0.11024905
  28        -0.00000017
  29         0.00000007
  30         0.28010278
Sym=    29a  
Ene=     3.5772
Spin= Alpha
Occup=    0.00000
   1         0.05804913
   2        -0.22865645
   3        -0.20687941
   4        -0.00000002
   5         0.00000000
   6         0.00000000
   7         0.00000002
   8        -0.00000000
   9        -0.00000000
  10         0.19141877
  11         0.18986343
  12         0.19295450
  13        -0.00000000
  14         0.00000000
  15        -0.00122476
  16         0.38634419
  17        -1.52181596
  18        -1.37687955
  19         0.00000013
  20        -0.00000000
  21         0.00000000
  22        -0.00000015
  23         0.00000000
  24        -0.00000000
  25         1.27398170
  26         1.28420277
  27         1.26363019
  28        -0.00000000
  29        -0.00000000
  30         0.00815129
Sym=    30a  
Ene=     3.5772
Spin= Alpha
Occup=    0.00000
   1         0.38634419
   2        -1.52181596
   3        -1.37687955
   4        -0.00000013
   5         0.00000000
   6         0.00000000
   7         0.00000015
   8        -0.00000000
   9        -0.00000000
  10         1.27398170
  11         1.26363021
  12         1.28420276
  13        -0.00000000
  14         0.00000000
  15        -0.00815132
  16        -0.05804913
  17         0.22865645
  18         0.20687941
  19        -0.00000002
  20         0.00000000
  21        -0.00000000
  22         0.00000002
  23        -0.00000000
  24         0.00000000
  25        -0.19141877
  26        -0.19295451
  27        -0.18986343
  28         0.00000000
  29         0.00000000
  30        -0.00122475
