[Molden Format]
[N_Atoms]
                    2
[Atoms] (AU)
N1          1      7           0.00000000      0.00000000      0.00000000
N2          2      7          19.84212431      0.00000000      0.00000000
[Charge] (Mulliken)
  -1.1524948453356387E-006
   1.1524948240193567E-006
[GTO] (AU)
   1
   s   6
  4.173511460E+03  1.834772160E-03
  6.274579110E+02  1.399462700E-02
  1.429020930E+02  6.858655181E-02
  4.023432930E+01  2.322408730E-01
  1.282021290E+01  4.690699481E-01
  4.390437010E+00  3.604551991E-01
   s   3
  1.162636186E+01 -1.149611817E-01
  2.716279807E+00 -1.691174786E-01
  7.722183966E-01  1.145851947E+00
   s   1
  2.120314975E-01  1.000000000E+00
   p   3
  1.162636186E+01  6.757974388E-02
  2.716279807E+00  3.239072959E-01
  7.722183966E-01  7.408951398E-01
   p   1
  2.120314975E-01  1.000000000E+00
   d   1
  8.000000000E-01  1.000000000E+00
 
   2
   s   6
  4.173511460E+03  1.834772160E-03
  6.274579110E+02  1.399462700E-02
  1.429020930E+02  6.858655181E-02
  4.023432930E+01  2.322408730E-01
  1.282021290E+01  4.690699481E-01
  4.390437010E+00  3.604551991E-01
   s   3
  1.162636186E+01 -1.149611817E-01
  2.716279807E+00 -1.691174786E-01
  7.722183966E-01  1.145851947E+00
   s   1
  2.120314975E-01  1.000000000E+00
   p   3
  1.162636186E+01  6.757974388E-02
  2.716279807E+00  3.239072959E-01
  7.722183966E-01  7.408951398E-01
   p   1
  2.120314975E-01  1.000000000E+00
   d   1
  8.000000000E-01  1.000000000E+00
 
[MO]
Sym=     1a  
Ene=   -15.7320
Spin= Alpha
Occup=    2.00000
   1         0.76239732
   2         0.01701684
   3        -0.00005266
   4         0.00000971
   5        -0.00000000
   6        -0.00000000
   7        -0.00000135
   8         0.00000000
   9         0.00000000
  10        -0.00249068
  11        -0.00280291
  12        -0.00206363
  13        -0.00000000
  14         0.00000000
  15        -0.00029292
  16         0.64002826
  17         0.01428552
  18        -0.00004404
  19        -0.00000884
  20        -0.00000000
  21         0.00000000
  22         0.00000048
  23         0.00000000
  24        -0.00000000
  25        -0.00209086
  26        -0.00173246
  27        -0.00235308
  28        -0.00000000
  29        -0.00000000
  30         0.00024590
Sym=     2a  
Ene=   -15.7320
Spin= Alpha
Occup=    2.00000
   1        -0.64002841
   2        -0.01428567
   3         0.00004519
   4        -0.00000419
   5         0.00000000
   6         0.00000000
   7         0.00000490
   8        -0.00000000
   9        -0.00000000
  10         0.00209120
  11         0.00235272
  12         0.00173211
  13         0.00000000
  14        -0.00000000
  15         0.00024590
  16         0.76239745
  17         0.01701697
  18        -0.00005363
  19        -0.00000581
  20        -0.00000000
  21         0.00000000
  22         0.00000506
  23         0.00000000
  24        -0.00000000
  25        -0.00249097
  26        -0.00206333
  27        -0.00280261
  28        -0.00000000
  29        -0.00000000
  30         0.00029292
Sym=     3a  
Ene=    -0.9812
Spin= Alpha
Occup=    2.00000
   1        -0.16076746
   2         0.37701247
   3         0.39339840
   4         0.00035635
   5        -0.00000000
   6        -0.00000000
   7         0.00042297
   8        -0.00000000
   9        -0.00000000
  10        -0.00132710
  11        -0.00302317
  12         0.00051971
  13        -0.00000000
  14         0.00000000
  15        -0.00140377
  16        -0.16066160
  17         0.37676418
  18         0.39313944
  19        -0.00035688
  20        -0.00000000
  21         0.00000000
  22        -0.00042340
  23        -0.00000000
  24         0.00000000
  25        -0.00132622
  26         0.00051935
  27        -0.00302120
  28        -0.00000000
  29        -0.00000000
  30         0.00140284
Sym=     4a  
Ene=    -0.9811
Spin= Alpha
Occup=    2.00000
   1         0.16066101
   2        -0.37682201
   3        -0.39305090
   4         0.00079615
   5        -0.00000000
   6        -0.00000000
   7         0.00065644
   8        -0.00000000
   9        -0.00000000
  10         0.00134693
  11         0.00299027
  12        -0.00055016
  13         0.00000000
  14        -0.00000000
  15         0.00140280
  16        -0.16076687
  17         0.37707024
  18         0.39330994
  19         0.00079591
  20         0.00000000
  21        -0.00000000
  22         0.00065616
  23         0.00000000
  24        -0.00000000
  25        -0.00134781
  26         0.00055051
  27        -0.00299226
  28        -0.00000000
  29        -0.00000000
  30         0.00140372
Sym=     5a  
Ene=    -0.4735
Spin= Alpha
Occup=    2.00000
   1        -0.00000000
   2         0.00000000
   3         0.00000000
   4         0.00000014
   5        -0.19892428
   6         0.64141163
   7         0.00000010
   8        -0.13927805
   9         0.44908826
  10         0.00000000
  11         0.00000000
  12        -0.00000000
  13        -0.00002180
  14         0.00007029
  15        -0.00000000
  16         0.00000000
  17        -0.00000000
  18        -0.00000000
  19        -0.00000000
  20        -0.00000460
  21        -0.00000101
  22        -0.00000000
  23        -0.00000355
  24         0.00000037
  25         0.00000000
  26        -0.00000000
  27        -0.00000000
  28         0.00000040
  29        -0.00000128
  30        -0.00000000
Sym=     6a  
Ene=    -0.4735
Spin= Alpha
Occup=    2.00000
   1         0.00000000
   2        -0.00000000
   3         0.00000000
   4         0.00000000
   5        -0.00000101
   6         0.00000460
   7         0.00000000
   8         0.00000037
   9         0.00000355
  10         0.00000000
  11        -0.00000000
  12        -0.00000000
  13         0.00000128
  14         0.00000040
  15        -0.00000000
  16        -0.00000000
  17        -0.00000000
  18         0.00000000
  19        -0.00000007
  20         0.64141186
  21         0.19892346
  22        -0.00000005
  23         0.44908846
  24         0.13927749
  25         0.00000000
  26        -0.00000000
  27         0.00000000
  28        -0.00007029
  29        -0.00002180
  30         0.00000000
Sym=     7a  
Ene=    -0.2351
Spin= Alpha
Occup=    2.00000
   1        -0.00015569
   2         0.00117797
   3        -0.00080174
   4        -0.42131519
   5         0.00000006
   6         0.00000011
   7        -0.38978569
   8         0.00000006
   9         0.00000011
  10        -0.00021269
  11         0.00035602
  12         0.00035479
  13         0.00000000
  14         0.00000000
  15         0.00000049
  16        -0.00015569
  17         0.00117797
  18        -0.00080174
  19         0.42131469
  20         0.00000008
  21        -0.00000011
  22         0.38978526
  23         0.00000008
  24        -0.00000011
  25        -0.00021269
  26         0.00035479
  27         0.00035602
  28        -0.00000000
  29         0.00000000
  30        -0.00000049
Sym=     8a  
Ene=    -0.1844
Spin= Alpha
Occup=    0.00000
   1        -0.00028366
   2         0.00107233
   3         0.00004663
   4         0.42140889
   5        -0.00000007
   6        -0.00000011
   7         0.38968811
   8        -0.00000006
   9        -0.00000011
  10        -0.00006343
  11         0.00020293
  12         0.00020999
  13         0.00000000
  14         0.00000000
  15        -0.00000280
  16         0.00028366
  17        -0.00107233
  18        -0.00004663
  19         0.42140936
  20         0.00000008
  21        -0.00000011
  22         0.38968857
  23         0.00000008
  24        -0.00000011
  25         0.00006343
  26        -0.00020999
  27        -0.00020293
  28         0.00000000
  29        -0.00000000
  30        -0.00000280
Sym=     9a  
Ene=     0.0251
Spin= Alpha
Occup=    0.00000
   1        -0.00000000
   2         0.00000000
   3         0.00000000
   4         0.00000012
   5         0.50143886
   6         0.15551381
   7         0.00000014
   8         0.59319766
   9         0.18397144
  10         0.00000000
  11        -0.00000000
  12        -0.00000000
  13         0.00006532
  14         0.00002026
  15        -0.00000000
  16         0.00000000
  17        -0.00000000
  18         0.00000000
  19         0.00000000
  20        -0.00000336
  21         0.00000438
  22         0.00000000
  23        -0.00000163
  24         0.00000591
  25         0.00000000
  26        -0.00000000
  27        -0.00000000
  28        -0.00000178
  29        -0.00000055
  30         0.00000000
Sym=    10a  
Ene=     0.0251
Spin= Alpha
Occup=    0.00000
   1        -0.00000000
   2         0.00000000
   3        -0.00000000
   4         0.00000000
   5        -0.00000438
   6        -0.00000336
   7         0.00000000
   8        -0.00000591
   9        -0.00000163
  10        -0.00000000
  11         0.00000000
  12         0.00000000
  13        -0.00000055
  14         0.00000178
  15        -0.00000000
  16         0.00000000
  17        -0.00000000
  18        -0.00000000
  19         0.00000017
  20        -0.15551316
  21         0.50143902
  22         0.00000020
  23        -0.18397070
  24         0.59319793
  25        -0.00000000
  26         0.00000000
  27         0.00000000
  28         0.00002026
  29        -0.00006532
  30        -0.00000000
Sym=    11a  
Ene=     0.8353
Spin= Alpha
Occup=    0.00000
   1        -0.00312285
   2         0.85408740
   3        -1.29300664
   4         0.00102441
   5        -0.00000000
   6        -0.00000000
   7        -0.00028642
   8         0.00000000
   9         0.00000000
  10         0.20015399
  11         0.20328886
  12         0.20004481
  13         0.00000000
  14         0.00000000
  15         0.00128537
  16        -0.00311971
  17         0.85322468
  18        -1.29170050
  19        -0.00102410
  20        -0.00000000
  21         0.00000000
  22         0.00028569
  23         0.00000000
  24        -0.00000000
  25         0.19995175
  26         0.19984278
  27         0.20308355
  28        -0.00000000
  29         0.00000000
  30        -0.00128406
Sym=    12a  
Ene=     0.8354
Spin= Alpha
Occup=    0.00000
   1        -0.00310913
   2         0.85319947
   3        -1.29172801
   4         0.00031624
   5        -0.00000000
   6        -0.00000000
   7        -0.00072949
   8         0.00000000
   9         0.00000000
  10         0.20001262
  11         0.20305326
  12         0.19981265
  13         0.00000000
  14         0.00000000
  15         0.00128401
  16         0.00311229
  17        -0.85406221
  18         1.29303413
  19         0.00031728
  20         0.00000000
  21        -0.00000000
  22        -0.00072979
  23        -0.00000000
  24         0.00000000
  25        -0.20021481
  26        -0.20001473
  27        -0.20325862
  28         0.00000000
  29        -0.00000000
  30         0.00128530
Sym=    13a  
Ene=     0.8916
Spin= Alpha
Occup=    0.00000
   1         0.00000000
   2        -0.00000000
   3         0.00000000
   4        -0.00000020
   5         0.28385215
   6        -0.91525311
   7         0.00000023
   8        -0.31740280
   9         1.02343387
  10        -0.00000000
  11        -0.00000000
  12        -0.00000000
  13         0.00000910
  14        -0.00002933
  15         0.00000000
  16         0.00000000
  17         0.00000000
  18        -0.00000000
  19         0.00000000
  20         0.00001317
  21        -0.00001215
  22        -0.00000000
  23        -0.00001366
  24         0.00001014
  25         0.00000000
  26         0.00000000
  27         0.00000000
  28         0.00000094
  29        -0.00000302
  30        -0.00000000
Sym=    14a  
Ene=     0.8916
Spin= Alpha
Occup=    0.00000
   1         0.00000000
   2         0.00000000
   3        -0.00000000
   4        -0.00000000
   5        -0.00001215
   6        -0.00001317
   7        -0.00000000
   8         0.00001014
   9         0.00001366
  10         0.00000000
  11         0.00000000
  12         0.00000000
  13         0.00000302
  14         0.00000094
  15        -0.00000000
  16        -0.00000000
  17         0.00000000
  18        -0.00000000
  19         0.00000010
  20        -0.91525349
  21        -0.28385099
  22        -0.00000011
  23         1.02343426
  24         0.31740150
  25        -0.00000000
  26         0.00000000
  27         0.00000000
  28         0.00002933
  29         0.00000910
  30        -0.00000000
Sym=    15a  
Ene=     0.9166
Spin= Alpha
Occup=    0.00000
   1        -0.00001819
   2        -0.00072510
   3         0.00121203
   4         0.72633647
   5        -0.00000011
   6        -0.00000020
   7        -0.74442856
   8         0.00000011
   9         0.00000020
  10        -0.00014902
  11        -0.00022595
  12        -0.00022045
  13        -0.00000000
  14        -0.00000000
  15        -0.00000218
  16        -0.00001751
  17        -0.00070141
  18         0.00117201
  19        -0.69761041
  20        -0.00000014
  21         0.00000019
  22         0.71498268
  23         0.00000014
  24        -0.00000019
  25        -0.00014471
  26        -0.00021274
  27        -0.00021804
  28         0.00000000
  29        -0.00000000
  30         0.00000210
Sym=    16a  
Ene=     0.9166
Spin= Alpha
Occup=    0.00000
   1         0.00001647
   2         0.00057286
   3        -0.00096797
   4        -0.69755392
   5         0.00000011
   6         0.00000019
   7         0.71503510
   8        -0.00000011
   9        -0.00000019
  10         0.00010385
  11         0.00019152
  12         0.00018667
  13         0.00000000
  14         0.00000000
  15         0.00000192
  16        -0.00001719
  17        -0.00060165
  18         0.00101607
  19        -0.72628223
  20        -0.00000014
  21         0.00000020
  22         0.74447889
  23         0.00000014
  24        -0.00000020
  25        -0.00010978
  26        -0.00019541
  27        -0.00020047
  28         0.00000000
  29        -0.00000000
  30         0.00000201
Sym=    17a  
Ene=     0.9331
Spin= Alpha
Occup=    0.00000
   1         0.00000000
   2        -0.00000000
   3         0.00000000
   4        -0.00000024
   5        -0.99882742
   6        -0.30977147
   7         0.00000023
   8         0.94721364
   9         0.29376423
  10        -0.00000000
  11        -0.00000000
  12        -0.00000000
  13        -0.00004070
  14        -0.00001262
  15         0.00000000
  16         0.00000000
  17         0.00000000
  18        -0.00000000
  19        -0.00000000
  20         0.00001481
  21        -0.00000215
  22         0.00000000
  23        -0.00001673
  24         0.00000121
  25         0.00000000
  26         0.00000000
  27         0.00000000
  28        -0.00000262
  29        -0.00000081
  30         0.00000000
Sym=    18a  
Ene=     0.9331
Spin= Alpha
Occup=    0.00000
   1         0.00000000
   2         0.00000000
   3        -0.00000000
   4         0.00000000
   5        -0.00000215
   6        -0.00001481
   7        -0.00000000
   8         0.00000121
   9         0.00001673
  10         0.00000000
  11         0.00000000
  12         0.00000000
  13         0.00000081
  14        -0.00000262
  15         0.00000000
  16         0.00000000
  17        -0.00000000
  18         0.00000000
  19         0.00000033
  20        -0.30977022
  21         0.99882783
  22        -0.00000031
  23         0.29376302
  24        -0.94721399
  25        -0.00000000
  26        -0.00000000
  27         0.00000000
  28         0.00001262
  29        -0.00004070
  30        -0.00000000
Sym=    19a  
Ene=     1.9685
Spin= Alpha
Occup=    0.00000
   1        -0.00270757
   2         0.01279838
   3         0.00474386
   4        -0.00019483
   5         0.00000000
   6         0.00000000
   7        -0.00011176
   8         0.00000000
   9         0.00000000
  10         0.49275296
  11        -0.61591721
  12         0.09763627
  13        -0.00000027
  14        -0.00000017
  15        -0.28272665
  16        -0.00270227
  17         0.01277343
  18         0.00473439
  19         0.00019490
  20         0.00000000
  21        -0.00000000
  22         0.00011198
  23         0.00000000
  24        -0.00000000
  25         0.49179333
  26         0.09744384
  27        -0.61471513
  28         0.00000016
  29        -0.00000040
  30         0.28217258
Sym=    20a  
Ene=     1.9685
Spin= Alpha
Occup=    0.00000
   1         0.00271365
   2        -0.01275973
   3        -0.00484442
   4        -0.00003315
   5         0.00000000
   6         0.00000000
   7        -0.00011241
   8         0.00000000
   9         0.00000000
  10        -0.49067138
  11         0.61498159
  12        -0.09873277
  13         0.00000028
  14         0.00000017
  15         0.28279039
  16        -0.00271894
  17         0.01278471
  18         0.00485368
  19        -0.00003277
  20        -0.00000000
  21         0.00000000
  22        -0.00011219
  23        -0.00000000
  24         0.00000000
  25         0.49163314
  26         0.09892399
  27        -0.61618440
  28         0.00000017
  29        -0.00000041
  30         0.28334120
Sym=    21a  
Ene=     1.9704
Spin= Alpha
Occup=    0.00000
   1        -0.00000000
   2         0.00000000
   3        -0.00000000
   4        -0.00000000
   5        -0.00007685
   6        -0.00002383
   7         0.00000000
   8        -0.00000021
   9        -0.00000007
  10         0.00000039
  11        -0.00000026
  12        -0.00000014
  13         0.95512030
  14         0.29621660
  15        -0.00000030
  16         0.00000000
  17        -0.00000000
  18        -0.00000000
  19         0.00000000
  20         0.00000196
  21         0.00000059
  22         0.00000000
  23        -0.00000384
  24        -0.00000119
  25        -0.00000000
  26        -0.00000000
  27         0.00000000
  28        -0.00082425
  29        -0.00051063
  30        -0.00000000
Sym=    22a  
Ene=     1.9704
Spin= Alpha
Occup=    0.00000
   1         0.00000000
   2        -0.00000000
   3        -0.00000000
   4        -0.00000000
   5         0.00000059
   6        -0.00000196
   7        -0.00000000
   8        -0.00000119
   9         0.00000384
  10        -0.00000001
  11         0.00000001
  12        -0.00000000
  13         0.00051063
  14        -0.00082426
  15         0.00000000
  16        -0.00000000
  17         0.00000000
  18        -0.00000000
  19         0.00000000
  20        -0.00002383
  21         0.00007685
  22        -0.00000000
  23        -0.00000007
  24         0.00000021
  25         0.00000055
  26        -0.00000010
  27        -0.00000045
  28        -0.29621539
  29         0.95512067
  30         0.00000027
Sym=    23a  
Ene=     1.9821
Spin= Alpha
Occup=    0.00000
   1        -0.00000000
   2         0.00000000
   3        -0.00000000
   4         0.00000000
   5         0.00000000
   6         0.00000000
   7        -0.00000000
   8         0.00000000
   9         0.00000000
  10        -0.00000000
  11        -0.48994453
  12         0.48994453
  13         0.00000014
  14         0.00000028
  15         0.82435721
  16        -0.00000000
  17         0.00000000
  18        -0.00000000
  19        -0.00000000
  20        -0.00000000
  21         0.00000000
  22         0.00000000
  23        -0.00000000
  24        -0.00000000
  25         0.00000000
  26        -0.00948115
  27         0.00948115
  28         0.00000001
  29        -0.00000000
  30         0.01595261
Sym=    24a  
Ene=     1.9821
Spin= Alpha
Occup=    0.00000
   1         0.00000000
   2        -0.00000000
   3         0.00000000
   4        -0.00000000
   5        -0.00000000
   6        -0.00000000
   7         0.00000000
   8         0.00000000
   9        -0.00000000
  10         0.00000000
  11         0.00948118
  12        -0.00948118
  13        -0.00000000
  14        -0.00000001
  15        -0.01595258
  16        -0.00000000
  17         0.00000000
  18        -0.00000000
  19        -0.00000000
  20        -0.00000000
  21         0.00000000
  22         0.00000000
  23         0.00000000
  24        -0.00000000
  25         0.00000000
  26        -0.48994272
  27         0.48994272
  28         0.00000033
  29        -0.00000001
  30         0.82435864
Sym=    25a  
Ene=     1.9934
Spin= Alpha
Occup=    0.00000
   1         0.00000000
   2        -0.00000000
   3        -0.00000000
   4        -0.00000000
   5         0.00002336
   6        -0.00007531
   7         0.00000000
   8         0.00000050
   9        -0.00000162
  10         0.00000037
  11         0.00000008
  12        -0.00000045
  13        -0.29621616
  14         0.95512043
  15        -0.00000007
  16         0.00000000
  17        -0.00000000
  18        -0.00000000
  19         0.00000000
  20        -0.00000056
  21         0.00000188
  22         0.00000000
  23         0.00000115
  24        -0.00000370
  25         0.00000001
  26        -0.00000001
  27         0.00000000
  28        -0.00004537
  29         0.00096856
  30        -0.00000000
Sym=    26a  
Ene=     1.9934
Spin= Alpha
Occup=    0.00000
   1         0.00000000
   2        -0.00000000
   3        -0.00000000
   4         0.00000000
   5        -0.00000188
   6        -0.00000056
   7         0.00000000
   8         0.00000370
   9         0.00000115
  10         0.00000000
  11        -0.00000000
  12        -0.00000000
  13         0.00096855
  14         0.00004537
  15        -0.00000000
  16         0.00000000
  17        -0.00000000
  18         0.00000000
  19        -0.00000000
  20         0.00007531
  21         0.00002336
  22        -0.00000000
  23         0.00000162
  24         0.00000050
  25        -0.00000018
  26         0.00000032
  27        -0.00000014
  28         0.95512081
  29         0.29621495
  30        -0.00000020
Sym=    27a  
Ene=     1.9951
Spin= Alpha
Occup=    0.00000
   1        -0.00294372
   2         0.01186148
   3         0.00804967
   4         0.00019090
   5        -0.00000000
   6        -0.00000000
   7         0.00011332
   8        -0.00000000
   9        -0.00000000
  10        -0.50930407
  11        -0.11762769
  12         0.59811805
  13        -0.00000001
  14         0.00000031
  15        -0.28359527
  16        -0.00293813
  17         0.01183887
  18         0.00803454
  19        -0.00019097
  20        -0.00000000
  21         0.00000000
  22        -0.00011353
  23        -0.00000000
  24         0.00000000
  25        -0.50833265
  26         0.59698057
  27        -0.11740696
  28        -0.00000017
  29         0.00000007
  30         0.28305558
Sym=    28a  
Ene=     1.9952
Spin= Alpha
Occup=    0.00000
   1         0.00292722
   2        -0.01184998
   3        -0.00793225
   4         0.00003699
   5        -0.00000000
   6        -0.00000000
   7         0.00011093
   8        -0.00000000
   9        -0.00000000
  10         0.50939192
  11         0.11605305
  12        -0.59677808
  13         0.00000000
  14        -0.00000030
  15         0.28244043
  16        -0.00293282
  17         0.01187256
  18         0.00794757
  19         0.00003663
  20         0.00000000
  21        -0.00000000
  22         0.00011072
  23         0.00000000
  24        -0.00000000
  25        -0.51036138
  26         0.59791718
  27        -0.11627753
  28        -0.00000017
  29         0.00000007
  30         0.28297918
Sym=    29a  
Ene=     3.5557
Spin= Alpha
Occup=    0.00000
   1         0.39013387
   2        -1.53456875
   3        -1.39657275
   4         0.00000548
   5        -0.00000000
   6        -0.00000000
   7        -0.00003054
   8         0.00000000
   9         0.00000000
  10         1.28853161
  11         1.27876664
  12         1.29983550
  13        -0.00000000
  14         0.00000000
  15        -0.00834798
  16         0.00046170
  17        -0.00181610
  18        -0.00165271
  19        -0.00000022
  20        -0.00000000
  21         0.00000000
  22        -0.00000017
  23        -0.00000000
  24         0.00000000
  25         0.00152496
  26         0.00153825
  27         0.00151332
  28        -0.00000000
  29        -0.00000000
  30         0.00000988
Sym=    30a  
Ene=     3.5557
Spin= Alpha
Occup=    0.00000
   1        -0.00046171
   2         0.00181606
   3         0.00165284
   4         0.00000021
   5        -0.00000000
   6        -0.00000000
   7         0.00000024
   8        -0.00000000
   9        -0.00000000
  10        -0.00152486
  11        -0.00151339
  12        -0.00153833
  13         0.00000000
  14        -0.00000000
  15         0.00000988
  16         0.39013387
  17        -1.53456876
  18        -1.39657274
  19        -0.00000548
  20        -0.00000000
  21         0.00000000
  22         0.00003054
  23         0.00000000
  24        -0.00000000
  25         1.28853161
  26         1.29983551
  27         1.27876662
  28        -0.00000000
  29        -0.00000000
  30         0.00834794
