[Molden Format]
[N_Atoms]
                    6
[Atoms] (AU)
C1          1      6          -1.25681716      0.00000000      0.00000000
C1          2      6           1.25681716      0.00000000      0.00000000
H2          3      1          -2.33953574      1.74486161      0.00000000
H2          4      1           2.33953574      1.74486161      0.00000000
H2          5      1          -2.33953574     -1.74486161      0.00000000
H2          6      1           2.33953574     -1.74486161      0.00000000
[5D]
[Charge] (Mulliken)
   0.0000000000000000     
   0.0000000000000000     
   0.0000000000000000     
   0.0000000000000000     
   0.0000000000000000     
   0.0000000000000000     
[GTO] (AU)
   1
   s   9
  6.665000000E+03  6.920001793E-04
  1.000000000E+03  5.329001381E-03
  2.280000000E+02  2.707700701E-02
  6.471000000E+01  1.017180264E-01
  2.106000000E+01  2.747400712E-01
  7.495000000E+00  4.485641162E-01
  2.797000000E+00  2.850740738E-01
  5.215000000E-01  1.520400394E-02
  1.596000000E-01 -3.191000827E-03
   s   9
  6.665000000E+03 -1.460000642E-04
  1.000000000E+03 -1.154000508E-03
  2.280000000E+02 -5.725002519E-03
  6.471000000E+01 -2.331201026E-02
  2.106000000E+01 -6.395502813E-02
  7.495000000E+00 -1.499810660E-01
  2.797000000E+00 -1.272620560E-01
  5.215000000E-01  5.445292395E-01
  1.596000000E-01  5.804962554E-01
   s   1
  1.596000000E-01  1.000000000E+00
   p   4
  9.439000000E+00  3.810902127E-02
  2.002000000E+00  2.094801169E-01
  5.456000000E-01  5.085572839E-01
  1.517000000E-01  4.688422617E-01
   p   1
  1.517000000E-01  1.000000000E+00
   d   1
  5.500000000E-01  1.000000000E+00
 
   2
   s   9
  6.665000000E+03  6.920001793E-04
  1.000000000E+03  5.329001381E-03
  2.280000000E+02  2.707700701E-02
  6.471000000E+01  1.017180264E-01
  2.106000000E+01  2.747400712E-01
  7.495000000E+00  4.485641162E-01
  2.797000000E+00  2.850740738E-01
  5.215000000E-01  1.520400394E-02
  1.596000000E-01 -3.191000827E-03
   s   9
  6.665000000E+03 -1.460000642E-04
  1.000000000E+03 -1.154000508E-03
  2.280000000E+02 -5.725002519E-03
  6.471000000E+01 -2.331201026E-02
  2.106000000E+01 -6.395502813E-02
  7.495000000E+00 -1.499810660E-01
  2.797000000E+00 -1.272620560E-01
  5.215000000E-01  5.445292395E-01
  1.596000000E-01  5.804962554E-01
   s   1
  1.596000000E-01  1.000000000E+00
   p   4
  9.439000000E+00  3.810902127E-02
  2.002000000E+00  2.094801169E-01
  5.456000000E-01  5.085572839E-01
  1.517000000E-01  4.688422617E-01
   p   1
  1.517000000E-01  1.000000000E+00
   d   1
  5.500000000E-01  1.000000000E+00
 
   3
   s   4
  1.301000000E+01  1.968498999E-02
  1.962000000E+00  1.379769298E-01
  4.446000000E-01  4.781477569E-01
  1.220000000E-01  5.012397451E-01
   s   1
  1.220000000E-01  1.000000000E+00
   p   1
  7.270000000E-01  1.000000000E+00
 
   4
   s   4
  1.301000000E+01  1.968498999E-02
  1.962000000E+00  1.379769298E-01
  4.446000000E-01  4.781477569E-01
  1.220000000E-01  5.012397451E-01
   s   1
  1.220000000E-01  1.000000000E+00
   p   1
  7.270000000E-01  1.000000000E+00
 
   5
   s   4
  1.301000000E+01  1.968498999E-02
  1.962000000E+00  1.379769298E-01
  4.446000000E-01  4.781477569E-01
  1.220000000E-01  5.012397451E-01
   s   1
  1.220000000E-01  1.000000000E+00
   p   1
  7.270000000E-01  1.000000000E+00
 
   6
   s   4
  1.301000000E+01  1.968498999E-02
  1.962000000E+00  1.379769298E-01
  4.446000000E-01  4.781477569E-01
  1.220000000E-01  5.012397451E-01
   s   1
  1.220000000E-01  1.000000000E+00
   p   1
  7.270000000E-01  1.000000000E+00
 
[MO]
Sym=     1ag 
Ene=   -11.3510
Spin= Alpha
Occup=    2.00000
   1         0.70520121
   2         0.00158067
   3         0.00345061
   4         0.00287270
   5         0.00000000
   6         0.00000000
   7        -0.00023820
   8         0.00000000
   9         0.00000000
  10         0.00000000
  11         0.00000000
  12         0.00000000
  13        -0.00000000
  14         0.00000000
  15         0.70520121
  16         0.00158067
  17         0.00345061
  18        -0.00287270
  19         0.00000000
  20         0.00000000
  21         0.00023820
  22         0.00000000
  23         0.00000000
  24         0.00000000
  25         0.00000000
  26         0.00000000
  27        -0.00000000
  28         0.00000000
  29         0.00346267
  30        -0.00050287
  31         0.00000000
  32        -0.00000000
  33         0.00000000
  34         0.00346267
  35        -0.00050287
  36        -0.00000000
  37        -0.00000000
  38         0.00000000
  39         0.00346267
  40        -0.00050287
  41         0.00000000
  42         0.00000000
  43         0.00000000
  44         0.00346267
  45        -0.00050287
  46        -0.00000000
  47         0.00000000
  48         0.00000000
Sym=     2ag 
Ene=    -1.4677
Spin= Alpha
Occup=    2.00000
   1        -0.05924035
   2         0.42827777
   3        -0.03604233
   4         0.07477157
   5         0.00000000
   6         0.00000000
   7        -0.00619994
   8         0.00000000
   9         0.00000000
  10         0.00000000
  11         0.00000000
  12         0.00000000
  13         0.00000000
  14         0.00000000
  15        -0.05924035
  16         0.42827777
  17        -0.03604233
  18        -0.07477157
  19         0.00000000
  20         0.00000000
  21         0.00619994
  22         0.00000000
  23         0.00000000
  24         0.00000000
  25         0.00000000
  26         0.00000000
  27         0.00000000
  28         0.00000000
  29         0.18865347
  30        -0.02739739
  31         0.00000000
  32        -0.00000000
  33         0.00000000
  34         0.18865347
  35        -0.02739739
  36        -0.00000000
  37        -0.00000000
  38         0.00000000
  39         0.18865347
  40        -0.02739739
  41         0.00000000
  42         0.00000000
  43         0.00000000
  44         0.18865347
  45        -0.02739739
  46        -0.00000000
  47         0.00000000
  48         0.00000000
Sym=     3ag 
Ene=    -0.6055
Spin= Alpha
Occup=    2.00000
   1         0.01591468
   2        -0.10687610
   3         0.00900006
   4        -0.56231446
   5         0.00000000
   6         0.00000000
   7         0.04662625
   8         0.00000000
   9         0.00000000
  10         0.00000000
  11         0.00000000
  12         0.00000000
  13         0.00000000
  14         0.00000000
  15         0.01591468
  16        -0.10687610
  17         0.00900006
  18         0.56231446
  19         0.00000000
  20         0.00000000
  21        -0.04662625
  22         0.00000000
  23         0.00000000
  24         0.00000000
  25         0.00000000
  26         0.00000000
  27         0.00000000
  28         0.00000000
  29         0.24316612
  30        -0.03531404
  31         0.00000000
  32         0.00000000
  33         0.00000000
  34         0.24316612
  35        -0.03531404
  36        -0.00000000
  37         0.00000000
  38         0.00000000
  39         0.24316612
  40        -0.03531404
  41         0.00000000
  42        -0.00000000
  43         0.00000000
  44         0.24316612
  45        -0.03531404
  46        -0.00000000
  47        -0.00000000
  48         0.00000000
Sym=     4ag 
Ene=    -0.1365
Spin= Alpha
Occup=    0.00000
   1        -0.13371883
   2        -1.00747372
   3         0.08339814
   4         0.60682674
   5         0.00000000
   6         0.00000000
   7        -0.05031714
   8         0.00000000
   9         0.00000000
  10        -0.00000000
  11         0.00000000
  12         0.00000000
  13        -0.00000000
  14         0.00000000
  15        -0.13371883
  16        -1.00747372
  17         0.08339814
  18        -0.60682674
  19         0.00000000
  20         0.00000000
  21         0.05031714
  22         0.00000000
  23         0.00000000
  24        -0.00000000
  25         0.00000000
  26         0.00000000
  27        -0.00000000
  28         0.00000000
  29         0.74837936
  30        -0.10868414
  31         0.00000000
  32         0.00000000
  33         0.00000000
  34         0.74837936
  35        -0.10868414
  36        -0.00000000
  37         0.00000000
  38         0.00000000
  39         0.74837936
  40        -0.10868414
  41         0.00000000
  42        -0.00000000
  43         0.00000000
  44         0.74837936
  45        -0.10868414
  46        -0.00000000
  47        -0.00000000
  48         0.00000000
Sym=     5ag 
Ene=     3.7763
Spin= Alpha
Occup=    0.00000
   1         0.17279360
   2         0.62129050
   3        -2.29236123
   4        -0.11053808
   5         0.00000000
   6         0.00000000
   7         0.76215728
   8         0.00000000
   9         0.00000000
  10         0.14714639
  11         0.00000000
  12         0.00000000
  13         0.12060332
  14         0.00000000
  15         0.17279360
  16         0.62129050
  17        -2.29236123
  18         0.11053808
  19         0.00000000
  20         0.00000000
  21        -0.76215728
  22         0.00000000
  23         0.00000000
  24         0.14714639
  25         0.00000000
  26         0.00000000
  27         0.12060332
  28         0.00000000
  29        -0.37827661
  30         1.34918113
  31         0.07749781
  32        -0.18597371
  33         0.00000000
  34        -0.37827661
  35         1.34918113
  36        -0.07749781
  37        -0.18597371
  38         0.00000000
  39        -0.37827661
  40         1.34918113
  41         0.07749781
  42         0.18597371
  43         0.00000000
  44        -0.37827661
  45         1.34918113
  46        -0.07749781
  47         0.18597371
  48         0.00000000
Sym=     6ag 
Ene=     4.2770
Spin= Alpha
Occup=    0.00000
   1        -0.01559493
   2        -0.08021656
   3        -0.88730066
   4        -0.61342938
   5         0.00000000
   6         0.00000000
   7         1.45712781
   8         0.00000000
   9         0.00000000
  10         0.04417968
  11         0.00000000
  12         0.00000000
  13         0.01098200
  14         0.00000000
  15        -0.01559493
  16        -0.08021656
  17        -0.88730066
  18         0.61342938
  19         0.00000000
  20         0.00000000
  21        -1.45712781
  22         0.00000000
  23         0.00000000
  24         0.04417968
  25         0.00000000
  26         0.00000000
  27         0.01098200
  28         0.00000000
  29         0.62981681
  30        -0.11359339
  31         0.06367318
  32        -0.08962999
  33         0.00000000
  34         0.62981681
  35        -0.11359339
  36        -0.06367318
  37        -0.08962999
  38         0.00000000
  39         0.62981681
  40        -0.11359339
  41         0.06367318
  42         0.08962999
  43         0.00000000
  44         0.62981681
  45        -0.11359339
  46        -0.06367318
  47         0.08962999
  48         0.00000000
Sym=     7ag 
Ene=     4.7070
Spin= Alpha
Occup=    0.00000
   1         0.45285276
   2         2.04322911
   3        -2.95385398
   4         0.17608277
   5         0.00000000
   6         0.00000000
   7         0.13192843
   8         0.00000000
   9         0.00000000
  10        -0.16294011
  11         0.00000000
  12         0.00000000
  13         0.04783141
  14         0.00000000
  15         0.45285276
  16         2.04322911
  17        -2.95385398
  18        -0.17608277
  19         0.00000000
  20         0.00000000
  21        -0.13192843
  22         0.00000000
  23         0.00000000
  24        -0.16294011
  25         0.00000000
  26         0.00000000
  27         0.04783141
  28         0.00000000
  29         0.42386743
  30         0.23026719
  31         0.03340369
  32        -0.08894309
  33         0.00000000
  34         0.42386743
  35         0.23026719
  36        -0.03340369
  37        -0.08894309
  38         0.00000000
  39         0.42386743
  40         0.23026719
  41         0.03340369
  42         0.08894309
  43         0.00000000
  44         0.42386743
  45         0.23026719
  46        -0.03340369
  47         0.08894309
  48         0.00000000
Sym=     8ag 
Ene=     5.1396
Spin= Alpha
Occup=    0.00000
   1         0.15391888
   2         0.61405098
   3        -1.34389178
   4        -0.06029856
   5         0.00000000
   6         0.00000000
   7         0.70415572
   8         0.00000000
   9         0.00000000
  10         0.44331047
  11         0.00000000
  12         0.00000000
  13         0.27298093
  14         0.00000000
  15         0.15391888
  16         0.61405098
  17        -1.34389178
  18         0.06029856
  19         0.00000000
  20         0.00000000
  21        -0.70415572
  22         0.00000000
  23         0.00000000
  24         0.44331047
  25         0.00000000
  26         0.00000000
  27         0.27298093
  28         0.00000000
  29         0.75011981
  30        -0.20010638
  31        -0.29568455
  32        -0.06075679
  33         0.00000000
  34         0.75011981
  35        -0.20010638
  36         0.29568455
  37        -0.06075679
  38         0.00000000
  39         0.75011981
  40        -0.20010638
  41        -0.29568455
  42         0.06075679
  43         0.00000000
  44         0.75011981
  45        -0.20010638
  46         0.29568455
  47         0.06075679
  48         0.00000000
Sym=     9ag 
Ene=     5.3678
Spin= Alpha
Occup=    0.00000
   1         0.31357895
   2         1.26468962
   3        -1.14558316
   4         0.23724684
   5         0.00000000
   6         0.00000000
   7        -0.63965404
   8         0.00000000
   9         0.00000000
  10         0.49326040
  11         0.00000000
  12         0.00000000
  13        -0.02514294
  14         0.00000000
  15         0.31357895
  16         1.26468962
  17        -1.14558316
  18        -0.23724684
  19         0.00000000
  20         0.00000000
  21         0.63965404
  22         0.00000000
  23         0.00000000
  24         0.49326040
  25         0.00000000
  26         0.00000000
  27        -0.02514294
  28         0.00000000
  29         0.23528157
  30        -0.11383769
  31         0.35353167
  32         0.25331919
  33         0.00000000
  34         0.23528157
  35        -0.11383769
  36        -0.35353167
  37         0.25331919
  38         0.00000000
  39         0.23528157
  40        -0.11383769
  41         0.35353167
  42        -0.25331919
  43         0.00000000
  44         0.23528157
  45        -0.11383769
  46        -0.35353167
  47        -0.25331919
  48         0.00000000
Sym=    10ag 
Ene=     6.1746
Spin= Alpha
Occup=    0.00000
   1        -0.36241872
   2        -1.39747885
   3         1.22852668
   4        -0.38596244
   5         0.00000000
   6         0.00000000
   7         0.30534505
   8         0.00000000
   9         0.00000000
  10        -0.16552940
  11         0.00000000
  12         0.00000000
  13         0.95548785
  14         0.00000000
  15        -0.36241872
  16        -1.39747885
  17         1.22852668
  18         0.38596244
  19         0.00000000
  20         0.00000000
  21        -0.30534505
  22         0.00000000
  23         0.00000000
  24        -0.16552940
  25         0.00000000
  26         0.00000000
  27         0.95548785
  28         0.00000000
  29         0.29961830
  30        -0.27811983
  31         0.43030181
  32         0.17128942
  33         0.00000000
  34         0.29961830
  35        -0.27811983
  36        -0.43030181
  37         0.17128942
  38         0.00000000
  39         0.29961830
  40        -0.27811983
  41         0.43030181
  42        -0.17128942
  43         0.00000000
  44         0.29961830
  45        -0.27811983
  46        -0.43030181
  47        -0.17128942
  48         0.00000000
Sym=    11ag 
Ene=     6.7957
Spin= Alpha
Occup=    0.00000
   1        -0.31119031
   2        -1.46519420
   3         0.27818669
   4         0.96234462
   5         0.00000000
   6         0.00000000
   7        -0.37865625
   8         0.00000000
   9         0.00000000
  10         0.46406748
  11         0.00000000
  12         0.00000000
  13         0.25720165
  14         0.00000000
  15        -0.31119031
  16        -1.46519420
  17         0.27818669
  18        -0.96234462
  19         0.00000000
  20         0.00000000
  21         0.37865625
  22         0.00000000
  23         0.00000000
  24         0.46406748
  25         0.00000000
  26         0.00000000
  27         0.25720165
  28         0.00000000
  29         1.09572625
  30        -0.40546181
  31         0.40581479
  32        -0.69511083
  33         0.00000000
  34         1.09572625
  35        -0.40546181
  36        -0.40581479
  37        -0.69511083
  38         0.00000000
  39         1.09572625
  40        -0.40546181
  41         0.40581479
  42         0.69511083
  43         0.00000000
  44         1.09572625
  45        -0.40546181
  46        -0.40581479
  47         0.69511083
  48         0.00000000
Sym=     1b3u
Ene=   -11.3300
Spin= Alpha
Occup=    2.00000
   1         0.70595687
   2        -0.00399535
   3         0.00391979
   4        -0.00283094
   5         0.00000000
   6         0.00000000
   7         0.00023474
   8         0.00000000
   9         0.00000000
  10        -0.00000000
  11         0.00000000
  12         0.00000000
  13        -0.00000000
  14         0.00000000
  15        -0.70595687
  16         0.00399535
  17        -0.00391979
  18        -0.00283094
  19         0.00000000
  20         0.00000000
  21         0.00023474
  22         0.00000000
  23         0.00000000
  24         0.00000000
  25         0.00000000
  26         0.00000000
  27         0.00000000
  28         0.00000000
  29         0.00256270
  30        -0.00037217
  31        -0.00000000
  32         0.00000000
  33         0.00000000
  34        -0.00256270
  35         0.00037217
  36        -0.00000000
  37        -0.00000000
  38         0.00000000
  39         0.00256270
  40        -0.00037217
  41        -0.00000000
  42        -0.00000000
  43         0.00000000
  44        -0.00256270
  45         0.00037217
  46        -0.00000000
  47         0.00000000
  48         0.00000000
Sym=     2b3u
Ene=    -1.0226
Spin= Alpha
Occup=    2.00000
   1        -0.03442687
   2         0.35346019
   3        -0.02967247
   4        -0.23973900
   5         0.00000000
   6         0.00000000
   7         0.01987879
   8         0.00000000
   9         0.00000000
  10         0.00000000
  11         0.00000000
  12         0.00000000
  13         0.00000000
  14         0.00000000
  15         0.03442687
  16        -0.35346019
  17         0.02967247
  18        -0.23973900
  19         0.00000000
  20         0.00000000
  21         0.01987879
  22         0.00000000
  23         0.00000000
  24        -0.00000000
  25         0.00000000
  26         0.00000000
  27        -0.00000000
  28         0.00000000
  29         0.27114408
  30        -0.03937717
  31         0.00000000
  32        -0.00000000
  33         0.00000000
  34        -0.27114408
  35         0.03937717
  36         0.00000000
  37         0.00000000
  38         0.00000000
  39         0.27114408
  40        -0.03937717
  41         0.00000000
  42         0.00000000
  43         0.00000000
  44        -0.27114408
  45         0.03937717
  46         0.00000000
  47        -0.00000000
  48         0.00000000
Sym=     3b3u
Ene=    -0.1342
Spin= Alpha
Occup=    0.00000
   1        -0.12255879
   2        -1.05274023
   3         0.08723249
   4         0.45175746
   5         0.00000000
   6         0.00000000
   7        -0.03745904
   8         0.00000000
   9         0.00000000
  10        -0.00000000
  11         0.00000000
  12         0.00000000
  13        -0.00000000
  14         0.00000000
  15         0.12255879
  16         1.05274023
  17        -0.08723249
  18         0.45175746
  19         0.00000000
  20         0.00000000
  21        -0.03745904
  22         0.00000000
  23         0.00000000
  24         0.00000000
  25         0.00000000
  26         0.00000000
  27         0.00000000
  28         0.00000000
  29         0.80734155
  30        -0.11724699
  31        -0.00000000
  32         0.00000000
  33         0.00000000
  34        -0.80734155
  35         0.11724699
  36        -0.00000000
  37        -0.00000000
  38         0.00000000
  39         0.80734155
  40        -0.11724699
  41        -0.00000000
  42        -0.00000000
  43         0.00000000
  44        -0.80734155
  45         0.11724699
  46        -0.00000000
  47         0.00000000
  48         0.00000000
Sym=     4b3u
Ene=    -0.1032
Spin= Alpha
Occup=    0.00000
   1         0.16641612
   2         1.15656146
   3        -0.09567396
   4         1.25987328
   5         0.00000000
   6         0.00000000
   7        -0.10446676
   8         0.00000000
   9         0.00000000
  10        -0.00000000
  11         0.00000000
  12         0.00000000
  13         0.00000000
  14         0.00000000
  15        -0.16641612
  16        -1.15656146
  17         0.09567396
  18         1.25987328
  19         0.00000000
  20         0.00000000
  21        -0.10446676
  22         0.00000000
  23         0.00000000
  24         0.00000000
  25         0.00000000
  26         0.00000000
  27        -0.00000000
  28         0.00000000
  29         0.13547542
  30        -0.01967455
  31        -0.00000000
  32        -0.00000000
  33         0.00000000
  34        -0.13547542
  35         0.01967455
  36        -0.00000000
  37         0.00000000
  38         0.00000000
  39         0.13547542
  40        -0.01967455
  41        -0.00000000
  42         0.00000000
  43         0.00000000
  44        -0.13547542
  45         0.01967455
  46        -0.00000000
  47        -0.00000000
  48         0.00000000
Sym=     5b3u
Ene=     3.7520
Spin= Alpha
Occup=    0.00000
   1         0.15172899
   2         0.58105994
   3        -1.48312316
   4        -0.04376799
   5         0.00000000
   6         0.00000000
   7         1.35423457
   8         0.00000000
   9         0.00000000
  10         0.16435641
  11         0.00000000
  12         0.00000000
  13         0.11121486
  14         0.00000000
  15        -0.15172899
  16        -0.58105994
  17         1.48312316
  18        -0.04376799
  19         0.00000000
  20         0.00000000
  21         1.35423457
  22         0.00000000
  23         0.00000000
  24        -0.16435641
  25         0.00000000
  26         0.00000000
  27        -0.11121486
  28         0.00000000
  29        -0.37581623
  30         1.70103170
  31         0.08883778
  32        -0.18232031
  33         0.00000000
  34         0.37581623
  35        -1.70103170
  36         0.08883778
  37         0.18232031
  38         0.00000000
  39        -0.37581623
  40         1.70103170
  41         0.08883778
  42         0.18232031
  43         0.00000000
  44         0.37581623
  45        -1.70103170
  46         0.08883778
  47        -0.18232031
  48         0.00000000
Sym=     6b3u
Ene=     3.9001
Spin= Alpha
Occup=    0.00000
   1        -0.25675393
   2        -0.89984047
   3         6.54318520
   4        -0.20081520
   5         0.00000000
   6         0.00000000
   7         4.58448568
   8         0.00000000
   9         0.00000000
  10        -0.17679653
  11         0.00000000
  12         0.00000000
  13         0.34595367
  14         0.00000000
  15         0.25675393
  16         0.89984047
  17        -6.54318520
  18        -0.20081520
  19         0.00000000
  20         0.00000000
  21         4.58448568
  22         0.00000000
  23         0.00000000
  24         0.17679653
  25         0.00000000
  26         0.00000000
  27        -0.34595367
  28         0.00000000
  29         0.09794859
  30         0.58756101
  31        -0.04176583
  32        -0.02920626
  33         0.00000000
  34        -0.09794859
  35        -0.58756101
  36        -0.04176583
  37         0.02920626
  38         0.00000000
  39         0.09794859
  40         0.58756101
  41        -0.04176583
  42         0.02920626
  43         0.00000000
  44        -0.09794859
  45        -0.58756101
  46        -0.04176583
  47        -0.02920626
  48         0.00000000
Sym=     7b3u
Ene=     4.7591
Spin= Alpha
Occup=    0.00000
   1        -0.53635817
   2        -2.19409022
   3         5.71102110
   4         0.18053181
   5         0.00000000
   6         0.00000000
   7         0.58102194
   8         0.00000000
   9         0.00000000
  10         0.05630526
  11         0.00000000
  12         0.00000000
  13        -0.00121393
  14         0.00000000
  15         0.53635817
  16         2.19409022
  17        -5.71102110
  18         0.18053181
  19         0.00000000
  20         0.00000000
  21         0.58102194
  22         0.00000000
  23         0.00000000
  24        -0.05630526
  25         0.00000000
  26         0.00000000
  27         0.00121393
  28         0.00000000
  29        -0.83126346
  30        -0.00874913
  31        -0.06076014
  32         0.16619357
  33         0.00000000
  34         0.83126346
  35         0.00874913
  36        -0.06076014
  37        -0.16619357
  38         0.00000000
  39        -0.83126346
  40        -0.00874913
  41        -0.06076014
  42        -0.16619357
  43         0.00000000
  44         0.83126346
  45         0.00874913
  46        -0.06076014
  47         0.16619357
  48         0.00000000
Sym=     8b3u
Ene=     5.3116
Spin= Alpha
Occup=    0.00000
   1         0.07376371
   2         0.35475220
   3         0.67517719
   4         0.07202303
   5         0.00000000
   6         0.00000000
   7         1.14509825
   8         0.00000000
   9         0.00000000
  10         0.28040274
  11         0.00000000
  12         0.00000000
  13         0.01323149
  14         0.00000000
  15        -0.07376371
  16        -0.35475220
  17        -0.67517719
  18         0.07202303
  19         0.00000000
  20         0.00000000
  21         1.14509825
  22         0.00000000
  23         0.00000000
  24        -0.28040274
  25         0.00000000
  26         0.00000000
  27        -0.01323149
  28         0.00000000
  29         0.29786754
  30         0.04565290
  31        -0.52030057
  32        -0.13444680
  33         0.00000000
  34        -0.29786754
  35        -0.04565290
  36        -0.52030057
  37         0.13444680
  38         0.00000000
  39         0.29786754
  40         0.04565290
  41        -0.52030057
  42         0.13444680
  43         0.00000000
  44        -0.29786754
  45        -0.04565290
  46        -0.52030057
  47        -0.13444680
  48         0.00000000
Sym=     9b3u
Ene=     6.0396
Spin= Alpha
Occup=    0.00000
   1        -0.42133326
   2        -1.62233135
   3         4.75699052
   4         0.46637728
   5         0.00000000
   6         0.00000000
   7         1.57219491
   8         0.00000000
   9         0.00000000
  10        -0.58118792
  11         0.00000000
  12         0.00000000
  13        -0.36219842
  14         0.00000000
  15         0.42133326
  16         1.62233135
  17        -4.75699052
  18         0.46637728
  19         0.00000000
  20         0.00000000
  21         1.57219491
  22         0.00000000
  23         0.00000000
  24         0.58118792
  25         0.00000000
  26         0.00000000
  27         0.36219842
  28         0.00000000
  29        -0.63225740
  30         0.53236432
  31        -0.26005790
  32        -0.43402955
  33         0.00000000
  34         0.63225740
  35        -0.53236432
  36        -0.26005790
  37         0.43402955
  38         0.00000000
  39        -0.63225740
  40         0.53236432
  41        -0.26005790
  42         0.43402955
  43         0.00000000
  44         0.63225740
  45        -0.53236432
  46        -0.26005790
  47        -0.43402955
  48         0.00000000
Sym=    10b3u
Ene=     6.6291
Spin= Alpha
Occup=    0.00000
   1         0.30765090
   2         1.54012496
   3         1.83087338
   4         0.77290859
   5         0.00000000
   6         0.00000000
   7         0.52212588
   8         0.00000000
   9         0.00000000
  10        -0.91592850
  11         0.00000000
  12         0.00000000
  13         0.74542439
  14         0.00000000
  15        -0.30765090
  16        -1.54012496
  17        -1.83087338
  18         0.77290859
  19         0.00000000
  20         0.00000000
  21         0.52212588
  22         0.00000000
  23         0.00000000
  24         0.91592850
  25         0.00000000
  26         0.00000000
  27        -0.74542439
  28         0.00000000
  29        -0.87185009
  30         0.36345125
  31        -0.11292422
  32         0.44991046
  33         0.00000000
  34         0.87185009
  35        -0.36345125
  36        -0.11292422
  37        -0.44991046
  38         0.00000000
  39        -0.87185009
  40         0.36345125
  41        -0.11292422
  42        -0.44991046
  43         0.00000000
  44         0.87185009
  45        -0.36345125
  46        -0.11292422
  47         0.44991046
  48         0.00000000
Sym=    11b3u
Ene=     7.4560
Spin= Alpha
Occup=    0.00000
   1        -0.01792953
   2        -0.31068422
   3        -1.18262114
   4         1.42402946
   5         0.00000000
   6         0.00000000
   7        -0.78688168
   8         0.00000000
   9         0.00000000
  10         0.45948872
  11         0.00000000
  12         0.00000000
  13         1.13665205
  14         0.00000000
  15         0.01792953
  16         0.31068422
  17         1.18262114
  18         1.42402946
  19         0.00000000
  20         0.00000000
  21        -0.78688168
  22         0.00000000
  23         0.00000000
  24        -0.45948872
  25         0.00000000
  26         0.00000000
  27        -1.13665205
  28         0.00000000
  29         1.36654179
  30        -0.52726101
  31         0.58996158
  32        -0.46264386
  33         0.00000000
  34        -1.36654179
  35         0.52726101
  36         0.58996158
  37         0.46264386
  38         0.00000000