[Molden Format]
[N_Atoms]
                    6
[Atoms] (AU)
C1          1      6          -1.25681716      0.00000000      0.00000000
C1          2      6           1.25681716      0.00000000      0.00000000
H2          3      1          -2.33953574      1.74486161      0.00000000
H2          4      1           2.33953574     -1.74486161      0.00000000
H2          5      1           2.33953574      1.74486161      0.00000000
H2          6      1          -2.33953574     -1.74486161      0.00000000
[5D]
[Charge] (Mulliken)
 -0.19772392528121152     
 -0.19772392528121152     
  0.19772392528118443     
  0.19772392528118443     
  0.19772392528118443     
  0.19772392528118443     
[GTO] (AU)
   1
   s   9
  6.665000000E+03  6.920001793E-04
  1.000000000E+03  5.329001381E-03
  2.280000000E+02  2.707700701E-02
  6.471000000E+01  1.017180264E-01
  2.106000000E+01  2.747400712E-01
  7.495000000E+00  4.485641162E-01
  2.797000000E+00  2.850740738E-01
  5.215000000E-01  1.520400394E-02
  1.596000000E-01 -3.191000827E-03
   s   9
  6.665000000E+03 -1.460000642E-04
  1.000000000E+03 -1.154000508E-03
  2.280000000E+02 -5.725002519E-03
  6.471000000E+01 -2.331201026E-02
  2.106000000E+01 -6.395502813E-02
  7.495000000E+00 -1.499810660E-01
  2.797000000E+00 -1.272620560E-01
  5.215000000E-01  5.445292395E-01
  1.596000000E-01  5.804962554E-01
   s   1
  1.596000000E-01  1.000000000E+00
   p   4
  9.439000000E+00  3.810902127E-02
  2.002000000E+00  2.094801169E-01
  5.456000000E-01  5.085572839E-01
  1.517000000E-01  4.688422617E-01
   p   1
  1.517000000E-01  1.000000000E+00
   d   1
  5.500000000E-01  1.000000000E+00
 
   2
   s   9
  6.665000000E+03  6.920001793E-04
  1.000000000E+03  5.329001381E-03
  2.280000000E+02  2.707700701E-02
  6.471000000E+01  1.017180264E-01
  2.106000000E+01  2.747400712E-01
  7.495000000E+00  4.485641162E-01
  2.797000000E+00  2.850740738E-01
  5.215000000E-01  1.520400394E-02
  1.596000000E-01 -3.191000827E-03
   s   9
  6.665000000E+03 -1.460000642E-04
  1.000000000E+03 -1.154000508E-03
  2.280000000E+02 -5.725002519E-03
  6.471000000E+01 -2.331201026E-02
  2.106000000E+01 -6.395502813E-02
  7.495000000E+00 -1.499810660E-01
  2.797000000E+00 -1.272620560E-01
  5.215000000E-01  5.445292395E-01
  1.596000000E-01  5.804962554E-01
   s   1
  1.596000000E-01  1.000000000E+00
   p   4
  9.439000000E+00  3.810902127E-02
  2.002000000E+00  2.094801169E-01
  5.456000000E-01  5.085572839E-01
  1.517000000E-01  4.688422617E-01
   p   1
  1.517000000E-01  1.000000000E+00
   d   1
  5.500000000E-01  1.000000000E+00
 
   3
   s   4
  1.301000000E+01  1.968498999E-02
  1.962000000E+00  1.379769298E-01
  4.446000000E-01  4.781477569E-01
  1.220000000E-01  5.012397451E-01
   s   1
  1.220000000E-01  1.000000000E+00
   p   1
  7.270000000E-01  1.000000000E+00
 
   4
   s   4
  1.301000000E+01  1.968498999E-02
  1.962000000E+00  1.379769298E-01
  4.446000000E-01  4.781477569E-01
  1.220000000E-01  5.012397451E-01
   s   1
  1.220000000E-01  1.000000000E+00
   p   1
  7.270000000E-01  1.000000000E+00
 
   5
   s   4
  1.301000000E+01  1.968498999E-02
  1.962000000E+00  1.379769298E-01
  4.446000000E-01  4.781477569E-01
  1.220000000E-01  5.012397451E-01
   s   1
  1.220000000E-01  1.000000000E+00
   p   1
  7.270000000E-01  1.000000000E+00
 
   6
   s   4
  1.301000000E+01  1.968498999E-02
  1.962000000E+00  1.379769298E-01
  4.446000000E-01  4.781477569E-01
  1.220000000E-01  5.012397451E-01
   s   1
  1.220000000E-01  1.000000000E+00
   p   1
  7.270000000E-01  1.000000000E+00
 
[MO]
Sym=     1ag 
Ene=   -11.2370
Spin= Alpha
Occup=    2.00000
   1         0.70773973
   2         0.00510726
   3        -0.00477280
   4        -0.00037538
   5         0.00000000
   6         0.00000000
   7         0.00061694
   8         0.00000000
   9         0.00000000
  10        -0.00030372
  11         0.00000000
  12         0.00000000
  13         0.00013714
  14         0.00000000
  15         0.70773973
  16         0.00510726
  17        -0.00477280
  18         0.00037538
  19         0.00000000
  20         0.00000000
  21        -0.00061694
  22         0.00000000
  23         0.00000000
  24        -0.00030372
  25         0.00000000
  26         0.00000000
  27         0.00013714
  28         0.00000000
  29        -0.00029858
  30         0.00118735
  31        -0.00005688
  32         0.00027880
  33         0.00000000
  34        -0.00029858
  35         0.00118735
  36         0.00005688
  37        -0.00027880
  38         0.00000000
  39        -0.00029858
  40         0.00118735
  41         0.00005688
  42         0.00027880
  43         0.00000000
  44        -0.00029858
  45         0.00118735
  46        -0.00005688
  47        -0.00027880
  48         0.00000000
Sym=     2ag 
Ene=    -1.0318
Spin= Alpha
Occup=    2.00000
   1        -0.02353236
   2         0.60001332
   3        -0.15540878
   4         0.17713473
   5         0.00000000
   6         0.00000000
   7        -0.05775048
   8         0.00000000
   9         0.00000000
  10        -0.00770344
  11         0.00000000
  12         0.00000000
  13         0.01775908
  14         0.00000000
  15        -0.02353236
  16         0.60001332
  17        -0.15540878
  18        -0.17713473
  19         0.00000000
  20         0.00000000
  21         0.05775048
  22         0.00000000
  23         0.00000000
  24        -0.00770344
  25         0.00000000
  26         0.00000000
  27         0.01775908
  28         0.00000000
  29         0.18945360
  30        -0.08749338
  31         0.01102783
  32        -0.01458711
  33         0.00000000
  34         0.18945360
  35        -0.08749338
  36        -0.01102783
  37         0.01458711
  38         0.00000000
  39         0.18945360
  40        -0.08749338
  41        -0.01102783
  42        -0.01458711
  43         0.00000000
  44         0.18945360
  45        -0.08749338
  46         0.01102783
  47         0.01458711
  48         0.00000000
Sym=     3ag 
Ene=    -0.5846
Spin= Alpha
Occup=    2.00000
   1        -0.00249981
   2        -0.05552335
   3         0.04393881
   4        -0.60459364
   5         0.00000000
   6         0.00000000
   7         0.13836735
   8         0.00000000
   9         0.00000000
  10        -0.00173204
  11         0.00000000
  12         0.00000000
  13        -0.02205010
  14         0.00000000
  15        -0.00249981
  16        -0.05552335
  17         0.04393881
  18         0.60459364
  19         0.00000000
  20         0.00000000
  21        -0.13836735
  22         0.00000000
  23         0.00000000
  24        -0.00173204
  25         0.00000000
  26         0.00000000
  27        -0.02205010
  28         0.00000000
  29         0.28498219
  30        -0.07887034
  31        -0.00265632
  32        -0.01337316
  33         0.00000000
  34         0.28498219
  35        -0.07887034
  36         0.00265632
  37         0.01337316
  38         0.00000000
  39         0.28498219
  40        -0.07887034
  41         0.00265632
  42        -0.01337316
  43         0.00000000
  44         0.28498219
  45        -0.07887034
  46        -0.00265632
  47         0.01337316
  48         0.00000000
Sym=     4ag 
Ene=     0.2036
Spin= Alpha
Occup=    0.00000
   1         0.04793619
   2        -0.10579204
   3        -1.33641937
   4         0.20385060
   5         0.00000000
   6         0.00000000
   7         0.43859041
   8         0.00000000
   9         0.00000000
  10         0.01569376
  11         0.00000000
  12         0.00000000
  13         0.00304626
  14         0.00000000
  15         0.04793619
  16        -0.10579204
  17        -1.33641937
  18        -0.20385060
  19         0.00000000
  20         0.00000000
  21        -0.43859041
  22         0.00000000
  23         0.00000000
  24         0.01569376
  25         0.00000000
  26         0.00000000
  27         0.00304626
  28         0.00000000
  29         0.01677602
  30         0.92724422
  31         0.00980398
  32        -0.00996032
  33         0.00000000
  34         0.01677602
  35         0.92724422
  36        -0.00980398
  37         0.00996032
  38         0.00000000
  39         0.01677602
  40         0.92724422
  41        -0.00980398
  42        -0.00996032
  43         0.00000000
  44         0.01677602
  45         0.92724422
  46         0.00980398
  47         0.00996032
  48         0.00000000
Sym=     5ag 
Ene=     0.5794
Spin= Alpha
Occup=    0.00000
   1        -0.07909950
   2        -0.34366442
   3        -0.22821023
   4        -0.63092379
   5         0.00000000
   6         0.00000000
   7         1.33603111
   8         0.00000000
   9         0.00000000
  10        -0.00144005
  11         0.00000000
  12         0.00000000
  13        -0.05885894
  14         0.00000000
  15        -0.07909950
  16        -0.34366442
  17        -0.22821023
  18         0.63092379
  19         0.00000000
  20         0.00000000
  21        -1.33603111
  22         0.00000000
  23         0.00000000
  24        -0.00144005
  25         0.00000000
  26         0.00000000
  27        -0.05885894
  28         0.00000000
  29         0.39937500
  30        -0.14430475
  31         0.03390076
  32         0.00414938
  33         0.00000000
  34         0.39937500
  35        -0.14430475
  36        -0.03390076
  37        -0.00414938
  38         0.00000000
  39         0.39937500
  40        -0.14430475
  41        -0.03390076
  42         0.00414938
  43         0.00000000
  44         0.39937500
  45        -0.14430475
  46         0.03390076
  47        -0.00414938
  48         0.00000000
Sym=     6ag 
Ene=     0.7085
Spin= Alpha
Occup=    0.00000
   1         0.17842294
   2         0.62301726
   3        -0.85899822
   4         0.39624582
   5         0.00000000
   6         0.00000000
   7        -0.24847936
   8         0.00000000
   9         0.00000000
  10        -0.19506235
  11         0.00000000
  12         0.00000000
  13        -0.07843993
  14         0.00000000
  15         0.17842294
  16         0.62301726
  17        -0.85899822
  18        -0.39624582
  19         0.00000000
  20         0.00000000
  21         0.24847936
  22         0.00000000
  23         0.00000000
  24        -0.19506235
  25         0.00000000
  26         0.00000000
  27        -0.07843993
  28         0.00000000
  29         0.82878181
  30        -0.56358922
  31        -0.02586856
  32         0.08715840
  33         0.00000000
  34         0.82878181
  35        -0.56358922
  36         0.02586856
  37        -0.08715840
  38         0.00000000
  39         0.82878181
  40        -0.56358922
  41         0.02586856
  42         0.08715840
  43         0.00000000
  44         0.82878181
  45        -0.56358922
  46        -0.02586856
  47        -0.08715840
  48         0.00000000
Sym=     7ag 
Ene=     1.0084
Spin= Alpha
Occup=    0.00000
   1         0.48762441
   2         2.25866573
   3        -3.58183619
   4        -0.33844103
   5         0.00000000
   6         0.00000000
   7         0.81649144
   8         0.00000000
   9         0.00000000
  10        -0.00421518
  11         0.00000000
  12         0.00000000
  13         0.14432469
  14         0.00000000
  15         0.48762441
  16         2.25866573
  17        -3.58183619
  18         0.33844103
  19         0.00000000
  20         0.00000000
  21        -0.81649144
  22         0.00000000
  23         0.00000000
  24        -0.00421518
  25         0.00000000
  26         0.00000000
  27         0.14432469
  28         0.00000000
  29        -0.05734892
  30         0.85375038
  31         0.05395587
  32        -0.14831063
  33         0.00000000
  34        -0.05734892
  35         0.85375038
  36        -0.05395587
  37         0.14831063
  38         0.00000000
  39        -0.05734892
  40         0.85375038
  41        -0.05395587
  42        -0.14831063
  43         0.00000000
  44        -0.05734892
  45         0.85375038
  46         0.05395587
  47         0.14831063
  48         0.00000000
Sym=     8ag 
Ene=     1.5970
Spin= Alpha
Occup=    0.00000
   1         0.13530735
   2         0.47352877
   3        -1.25124760
   4        -0.00691608
   5         0.00000000
   6         0.00000000
   7         0.61381243
   8         0.00000000
   9         0.00000000
  10         0.54181111
  11         0.00000000
  12         0.00000000
  13         0.32523724
  14         0.00000000
  15         0.13530735
  16         0.47352877
  17        -1.25124760
  18         0.00691608
  19         0.00000000
  20         0.00000000
  21        -0.61381243
  22         0.00000000
  23         0.00000000
  24         0.54181111
  25         0.00000000
  26         0.00000000
  27         0.32523724
  28         0.00000000
  29         0.90204160
  30        -0.28923222
  31        -0.17115414
  32         0.00244070
  33         0.00000000
  34         0.90204160
  35        -0.28923222
  36         0.17115414
  37        -0.00244070
  38         0.00000000
  39         0.90204160
  40        -0.28923222
  41         0.17115414
  42         0.00244070
  43         0.00000000
  44         0.90204160
  45        -0.28923222
  46        -0.17115414
  47        -0.00244070
  48         0.00000000
Sym=     9ag 
Ene=     1.8514
Spin= Alpha
Occup=    0.00000
   1         0.35141997
   2         1.41581172
   3        -1.09485754
   4         0.35477257
   5         0.00000000
   6         0.00000000
   7        -0.85902949
   8         0.00000000
   9         0.00000000
  10         0.45071563
  11         0.00000000
  12         0.00000000
  13        -0.32441991
  14         0.00000000
  15         0.35141997
  16         1.41581172
  17        -1.09485754
  18        -0.35477257
  19         0.00000000
  20         0.00000000
  21         0.85902949
  22         0.00000000
  23         0.00000000
  24         0.45071563
  25         0.00000000
  26         0.00000000
  27        -0.32441991
  28         0.00000000
  29        -0.02406466
  30         0.00847087
  31         0.28597616
  32         0.17490957
  33         0.00000000
  34        -0.02406466
  35         0.00847087
  36        -0.28597616
  37        -0.17490957
  38         0.00000000
  39        -0.02406466
  40         0.00847087
  41        -0.28597616
  42         0.17490957
  43         0.00000000
  44        -0.02406466
  45         0.00847087
  46         0.28597616
  47        -0.17490957
  48         0.00000000
Sym=    10ag 
Ene=     2.5088
Spin= Alpha
Occup=    0.00000
   1        -0.20913869
   2        -0.72547625
   3         1.10562985
   4        -0.54102158
   5         0.00000000
   6         0.00000000
   7         0.06637162
   8         0.00000000
   9         0.00000000
  10        -0.20014571
  11         0.00000000
  12         0.00000000
  13         0.77386924
  14         0.00000000
  15        -0.20913869
  16        -0.72547625
  17         1.10562985
  18         0.54102158
  19         0.00000000
  20         0.00000000
  21        -0.06637162
  22         0.00000000
  23         0.00000000
  24        -0.20014571
  25         0.00000000
  26         0.00000000
  27         0.77386924
  28         0.00000000
  29        -0.05190616
  30        -0.20733315
  31         0.41651267
  32         0.41511105
  33         0.00000000
  34        -0.05190616
  35        -0.20733315
  36        -0.41651267
  37        -0.41511105
  38         0.00000000
  39        -0.05190616
  40        -0.20733315
  41        -0.41651267
  42         0.41511105
  43         0.00000000
  44        -0.05190616
  45        -0.20733315
  46         0.41651267
  47        -0.41511105
  48         0.00000000
Sym=    11ag 
Ene=     2.6977
Spin= Alpha
Occup=    0.00000
   1        -0.37305845
   2        -1.76524784
   3         0.25002650
   4         0.84726134
   5         0.00000000
   6         0.00000000
   7        -0.14331367
   8         0.00000000
   9         0.00000000
  10         0.39699108
  11         0.00000000
  12         0.00000000
  13         0.47964075
  14         0.00000000
  15        -0.37305845
  16        -1.76524784
  17         0.25002650
  18        -0.84726134
  19         0.00000000
  20         0.00000000
  21         0.14331367
  22         0.00000000
  23         0.00000000
  24         0.39699108
  25         0.00000000
  26         0.00000000
  27         0.47964075
  28         0.00000000
  29         1.22419109
  30        -0.35645271
  31         0.53284322
  32        -0.63078879
  33         0.00000000
  34         1.22419109
  35        -0.35645271
  36        -0.53284322
  37         0.63078879
  38         0.00000000
  39         1.22419109
  40        -0.35645271
  41        -0.53284322
  42        -0.63078879
  43         0.00000000
  44         1.22419109
  45        -0.35645271
  46         0.53284322
  47         0.63078879
  48         0.00000000
Sym=     1b2u
Ene=    -0.6372
Spin= Alpha
Occup=    2.00000
   1         0.00000000
   2         0.00000000
   3         0.00000000
   4         0.00000000
   5         0.46611470
   6         0.00000000
   7         0.00000000
   8        -0.10221434
   9         0.00000000
  10         0.00000000
  11         0.00000000
  12         0.00000000
  13         0.00000000
  14        -0.00042469
  15         0.00000000
  16         0.00000000
  17         0.00000000
  18         0.00000000
  19         0.46611470
  20         0.00000000
  21         0.00000000
  22        -0.10221434
  23         0.00000000
  24         0.00000000
  25         0.00000000
  26         0.00000000
  27         0.00000000
  28         0.00042469
  29         0.35742598
  30        -0.11732217
  31         0.01081348
  32        -0.01102544
  33         0.00000000
  34        -0.35742598
  35         0.11732217
  36         0.01081348
  37        -0.01102544
  38         0.00000000
  39         0.35742598
  40        -0.11732217
  41        -0.01081348
  42        -0.01102544
  43         0.00000000
  44        -0.35742598
  45         0.11732217
  46        -0.01081348
  47        -0.01102544
  48         0.00000000
Sym=     2b2u
Ene=     0.2323
Spin= Alpha
Occup=    0.00000
   1         0.00000000
   2         0.00000000
   3         0.00000000
   4         0.00000000
   5        -0.33511768
   6         0.00000000
   7         0.00000000
   8        -0.61827583
   9         0.00000000
  10         0.00000000
  11         0.00000000
  12         0.00000000
  13         0.00000000
  14        -0.00096983
  15         0.00000000
  16         0.00000000
  17         0.00000000
  18         0.00000000
  19        -0.33511768
  20         0.00000000
  21         0.00000000
  22        -0.61827583
  23         0.00000000
  24         0.00000000
  25         0.00000000
  26         0.00000000
  27         0.00000000
  28         0.00096983
  29         0.04877367
  30         1.15706305
  31         0.00731351
  32        -0.01171460
  33         0.00000000
  34        -0.04877367
  35        -1.15706305
  36         0.00731351
  37        -0.01171460
  38         0.00000000
  39         0.04877367
  40         1.15706305
  41        -0.00731351
  42        -0.01171460
  43         0.00000000
  44        -0.04877367
  45        -1.15706305
  46        -0.00731351
  47        -0.01171460
  48         0.00000000
Sym=     3b2u
Ene=     0.6093
Spin= Alpha
Occup=    0.00000
   1         0.00000000
   2         0.00000000
   3         0.00000000
   4         0.00000000
   5        -0.08344652
   6         0.00000000
   7         0.00000000
   8         0.43518653
   9         0.00000000
  10         0.00000000
  11         0.00000000
  12         0.00000000
  13         0.00000000
  14         0.14790803
  15         0.00000000
  16         0.00000000
  17         0.00000000
  18         0.00000000
  19        -0.08344652
  20         0.00000000
  21         0.00000000
  22         0.43518653
  23         0.00000000
  24         0.00000000
  25         0.00000000
  26         0.00000000
  27         0.00000000
  28        -0.14790803
  29        -0.88129012
  30         0.67139925
  31         0.06852939
  32        -0.01440042
  33         0.00000000
  34         0.88129012
  35        -0.67139925
  36         0.06852939
  37        -0.01440042
  38         0.00000000
  39        -0.88129012
  40         0.67139925
  41        -0.06852939
  42        -0.01440042
  43         0.00000000
  44         0.88129012
  45        -0.67139925
  46        -0.06852939
  47        -0.01440042
  48         0.00000000
Sym=     4b2u
Ene=     0.8598
Spin= Alpha
Occup=    0.00000
   1         0.00000000
   2         0.00000000
   3         0.00000000
   4         0.00000000
   5         0.88949928
   6         0.00000000
   7         0.00000000
   8        -1.78507083
   9         0.00000000
  10         0.00000000
  11         0.00000000
  12         0.00000000
  13         0.00000000
  14         0.23565588
  15         0.00000000
  16         0.00000000
  17         0.00000000
  18         0.00000000
  19         0.88949928
  20         0.00000000
  21         0.00000000
  22        -1.78507083
  23         0.00000000
  24         0.00000000
  25         0.00000000
  26         0.00000000
  27         0.00000000
  28        -0.23565588
  29        -0.02463870
  30         1.10079327
  31         0.06974828
  32        -0.14155622
  33         0.00000000
  34         0.02463870
  35        -1.10079327
  36         0.06974828
  37        -0.14155622
  38         0.00000000
  39        -0.02463870
  40         1.10079327
  41        -0.06974828
  42        -0.14155622
  43         0.00000000
  44         0.02463870
  45        -1.10079327
  46        -0.06974828
  47        -0.14155622
  48         0.00000000
Sym=     5b2u
Ene=     1.7539
Spin= Alpha
Occup=    0.00000
   1         0.00000000
   2         0.00000000
   3         0.00000000
   4         0.00000000
   5         0.04336312
   6         0.00000000
   7         0.00000000
   8        -0.61759095
   9         0.00000000
  10         0.00000000
  11         0.00000000
  12         0.00000000
  13         0.00000000
  14         0.34103724
  15         0.00000000
  16         0.00000000
  17         0.00000000
  18         0.00000000
  19         0.04336312
  20         0.00000000
  21         0.00000000
  22        -0.61759095
  23         0.00000000
  24         0.00000000
  25         0.00000000
  26         0.00000000
  27         0.00000000
  28        -0.34103724
  29         0.68536119
  30        -0.20251975
  31         0.21330065
  32         0.35431448
  33         0.00000000
  34        -0.68536119
  35         0.20251975
  36         0.21330065
  37         0.35431448
  38         0.00000000
  39         0.68536119
  40        -0.20251975
  41        -0.21330065
  42         0.35431448
  43         0.00000000
  44        -0.68536119
  45         0.20251975
  46        -0.21330065
  47         0.35431448
  48         0.00000000
Sym=     6b2u
Ene=     1.9074
Spin= Alpha
Occup=    0.00000
   1         0.00000000
   2         0.00000000
   3         0.00000000
   4         0.00000000
   5         0.11657414
   6         0.00000000
   7         0.00000000
   8        -0.24787755
   9         0.00000000
  10         0.00000000
  11         0.00000000
  12         0.00000000
  13         0.00000000
  14        -0.45650415
  15         0.00000000
  16         0.00000000
  17         0.00000000
  18         0.00000000
  19         0.11657414
  20         0.00000000
  21         0.00000000
  22        -0.24787755
  23         0.00000000
  24         0.00000000
  25         0.00000000
  26         0.00000000
  27         0.00000000
  28         0.45650415
  29        -0.37448235
  30         0.46379671
  31         0.44918993
  32         0.07313522
  33         0.00000000
  34         0.37448235
  35        -0.46379671
  36         0.44918993
  37         0.07313522
  38         0.00000000
  39        -0.37448235
  40         0.46379671
  41        -0.44918993
  42         0.07313522
  43         0.00000000
  44         0.37448235
  45        -0.46379671
  46        -0.44918993
  47         0.07313522
  48         0.00000000
Sym=     7b2u
Ene=     2.8143
Spin= Alpha
Occup=    0.00000
   1         0.00000000
   2         0.00000000
   3         0.00000000
   4         0.00000000
   5        -1.61217466
   6         0.00000000
   7         0.00000000
   8         0.11212973
   9         0.00000000
  10         0.00000000
  11         0.00000000
  12         0.00000000
  13         0.00000000
  14         0.80139413
  15         0.00000000
  16         0.00000000
  17         0.00000000
  18         0.00000000
  19        -1.61217466
  20         0.00000000
  21         0.00000000
  22         0.11212973
  23         0.00000000
  24         0.00000000
  25         0.00000000
  26         0.00000000
  27         0.00000000
  28        -0.80139413
  29         1.47271028
  30        -0.29991657
  31         0.43234635
  32        -0.68892705
  33         0.00000000
  34        -1.47271028
  35         0.29991657
  36         0.43234635
  37        -0.68892705
  38         0.00000000
  39         1.47271028
  40        -0.29991657
  41        -0.43234635
  42        -0.68892705
  43         0.00000000
  44        -1.47271028
  45         0.29991657
  46        -0.43234635
  47        -0.68892705
  48         0.00000000
Sym=     1b1u
Ene=    -0.3749
Spin= Alpha
Occup=    2.00000
   1         0.00000000
   2         0.00000000
   3         0.00000000
   4         0.00000000
   5         0.00000000
   6         0.57168984
   7         0.00000000
   8         0.00000000
   9         0.02454017
  10         0.00000000
  11         0.03237232
  12         0.00000000
  13         0.00000000
  14         0.00000000
  15         0.00000000
  16         0.00000000
  17         0.00000000
  18         0.00000000
  19         0.00000000
  20         0.57168984
  21         0.00000000
  22         0.00000000
  23         0.02454017
  24         0.00000000
  25        -0.03237232
  26         0.00000000
  27         0.00000000
  28         0.00000000
  29         0.00000000
  30         0.00000000
  31         0.00000000
  32         0.00000000
  33         0.01316834
  34         0.00000000
  35         0.00000000
  36         0.00000000
  37         0.00000000
  38         0.01316834
  39         0.00000000
  40         0.00000000
  41         0.00000000
  42         0.00000000
  43         0.01316834
  44         0.00000000
  45         0.00000000
  46         0.00000000
  47         0.00000000
  48         0.01316834
Sym=     2b1u
Ene=     0.6883
Spin= Alpha
Occup=    0.00000
   1         0.00000000
   2         0.00000000
   3         0.00000000
   4         0.00000000
   5         0.00000000
   6        -1.00410493
   7         0.00000000
   8         0.00000000
   9         1.08560020
  10         0.00000000
  11        -0.11439933
  12         0.00000000
  13         0.00000000
  14         0.00000000
  15         0.00000000
  16         0.00000000
  17         0.00000000
  18         0.00000000
  19         0.00000000
  20        -1.00410493
  21         0.00000000
  22         0.00000000
  23         1.08560020
  24         0.00000000
  25         0.11439933
  26         0.00000000
  27         0.00000000
  28         0.00000000
  29         0.00000000
  30         0.00000000
  31         0.00000000
  32         0.00000000
  33        -0.02003952
  34         0.00000000
  35         0.00000000
  36         0.00000000
  37         0.00000000
  38        -0.02003952
  39         0.00000000
  40         0.00000000
  41         0.00000000
  42         0.00000000
  43        -0.02003952
  44         0.00000000
  45         0.00000000
  46         0.00000000
  47         0.00000000
  48        -0.02003952
Sym=     3b1u
Ene=     1.2637
Spin= Alpha
Occup=    0.00000
   1         0.00000000
   2         0.00000000
   3         0.00000000
   4         0.00000000
   5         0.00000000
   6        -0.30975201
   7         0.00000000
   8         0.00000000
   9         0.28639927
  10         0.00000000
  11         0.48226733
  12         0.00000000
  13         0.00000000
  14         0.00000000
  15         0.00000000
  16         0.00000000
  17         0.00000000
  18         0.00000000
  19         0.00000000
  20        -0.30975201
  21         0.00000000
  22         0.00000000
  23         0.28639927
  24         0.00000000
  25        -0.48226733
  26         0.00000000
  27         0.00000000
  28         0.00000000
  29         0.00000000
  30         0.00000000
  31         0.00000000
  32         0.00000000
  33        -0.19521625
  34         0.00000000
  35         0.00000000
  36         0.00000000
  37         0.00000000
  38        -0.19521625
  39         0.00000000
  40         0.00000000
  41         0.00000000
  42         0.00000000
  43        -0.19521625
  44         0.00000000
  45         0.00000000
  46         0.00000000
  47         0.00000000
  48        -0.19521625
Sym=     4b1u
Ene=     1.9807
Spin= Alpha
Occup=    0.00000
   1         0.00000000
   2         0.00000000
   3         0.00000000
   4         0.00000000
   5         0.00000000
   6        -0.39078025
   7         0.00000000
   8         0.00000000
   9         0.00868554
  10         0.00000000
  11         0.42497308
  12         0.00000000
  13         0.00000000
  14         0.00000000
  15         0.00000000
  16         0.00000000
  17         0.00000000
  18         0.00000000
  19         0.00000000
  20        -0.39078025
  21         0.00000000
  22         0.00000000
  23         0.00868554
  24         0.00000000
  25        -0.42497308
  26         0.00000000
  27         0.00000000
  28         0.00000000
  29         0.00000000
  30         0.00000000
  31         0.00000000
  32         0.00000000
  33         0.55287030
  34         0.00000000
  35         0.00000000
  36         0.00000000
  37         0.00000000
  38         0.55287030