   This run of MOLCAS is using the pymolcas driver

                             OPE
                             OPE          NMOL  CASOP  ENMOLC A   SO
                 OPE        NMOLC        AS  OP EN  MO LC     AS  OP
                OPENM       OL CA        SO  PE NM  OL CA     SOP EN
                OP EN      MO   LC       AS  OP ENMOL  CASO   PENMOL
                OP  EN     MO   LC       AS  OP EN     MO     LC ASO
               OP   E  NMOL  C  AS       OP  EN MO     LC     AS  OP
               OP  E   NMO   LC AS        OPEN  MO     LCASOP EN   M
               O  PEN   MO  LCA  SO
            OPE   NMO   L   CAS    OP
        OPENMOL  CASOP     ENMOL   CASOPE
     OPENMOLCA   SOPENMOLCASOPEN   MOLCASOPE
    OPENMOLCAS   OP           EN   MOL    CAS
    OPENMOLCAS       OP  ENM        O     LCA
    OPENMOLCAS    OPEN  MOLCASO     P  E  NMO
    OPENMOLCAS     OP               E  N  MOL
    OPENMOLCA   SO           PENM   O  L  CAS    OPEN    MO    LCAS
    OPENMOLCA   SOP           ENM   O  L  CAS   OP  EN  MOLC  AS   O
    OPENMOLCA   SOPE           NM      O  LCA   S      OP  EN MO
    OPENMOLC                AS         O  PEN   M      OL  CA  SOPE
    OPENMO        LCASOPE  NMOL        C  ASO   P      ENMOLC     AS
    OPE     NMO      LCA  SO     P     E   NM   OL  CA SO  PE N   MO
          OPENMOLCA            SOPE   NMO        LCAS  O    P  ENMO
     OPENMOLCASOPENMOLCASOPENMOLCASOPENMOLCA
        OPENMOLCASOPENMOLCASOPENMOLCASOPE
            OPENMOLCASOPENMOLCASOPENM
               OPENMOLCASOPENMOLCA        version: 24.02
                   OPENMOLCASO
                       OPE                tag: 428-g03afa2e9a

 OpenMolcas is free software; you can redistribute it and/or modify it
 under the terms of the GNU Lesser General Public License version 2.1.
 OpenMolcas is distributed in the hope that it will be useful, but it
 is provided "as is" and without any express or implied warranties.
 For more details see the full text of the license in the file
 LICENSE or in <http://www.gnu.org/licenses/>.

                 Copyright (C) The OpenMolcas Authors
           For the author list and the recommended citation,
                   consult the file CONTRIBUTORS.md

           *************************************************
           * pymolcas version py2.28                       *
           *   build c4a6d18ded8cb6cad61d2372a9abd97c      *
           *   (after the EMIL interpreter by V. Veryazov) *
           *************************************************

configuration info
------------------
Host name: DESKTOP-ET1S6F4 (Linux)
C Compiler ID: GNU
C flags: -std=gnu99 -fopenmp
Fortran Compiler ID: GNU
Fortran flags: -fno-aggressive-loop-optimizations -cpp -fdefault-integer-8 -fopenmp
Definitions: _WARNING_WORKAROUND_;_MOLCAS_;_I8_;_LINUX_
Parallel: OFF (GA=OFF)


   ----------------------------------------------------------------------
  |
  |           Project: c2h4_aug_PVDZ
  |    Submitted from: /home/kenya/molcas_test/0521
  |      Scratch area: /tmp/c2h4_aug_PVDZ
  |   Save outputs to: /home/kenya/molcas_test/0521
  |            Molcas: /home/kenya/OpenMolcas/builds/gnu_dev_omp
  |
  | Scratch area is empty
  |
  |    MOLCAS_DRIVER = /home/kenya/OpenMolcas/builds/gnu_dev_omp/pymolcas
  |    MOLCAS_NPROCS = 1
  |    MOLCAS_SOURCE = /home/kenya/OpenMolcas
  | MOLCAS_STRUCTURE = 0
  |
   ----------------------------------------------------------------------

++ ---------   Input file   ---------

&GATEWAY
  Coord = 6
  Angstrom
  C       -0.665079000      0.000000000      0.000000000
  C        0.665079000      0.000000000      0.000000000
  H       -1.238029000      0.923341000      0.000000000
  H       -1.238029000     -0.923341000      0.000000000
  H        1.238029000      0.923341000      0.000000000
  H        1.238029000     -0.923341000      0.000000000
  Basis = aug-cc-pVDZ
  Group = XY XZ X
  NoCD

&SEWARD

&SCF

-- ----------------------------------

--- Start Module: gateway at Tue May 21 14:28:06 2024 ---

()()()()()()()()()()()()()()()()()()()()()()()()()()()()()()()()()()()()()()()()()()()()()()()()()()

                                              &GATEWAY

                                   only a single process is used
                       available to each process: 2.0 GB of memory, 1 thread
                                             pid: 21160
()()()()()()()()()()()()()()()()()()()()()()()()()()()()()()()()()()()()()()()()()()()()()()()()()()


++    Symmetry information:
      ---------------------

                    --- Group Generators ---
                    Rotation around the z-axis  
                    Rotation around the y-axis  
                    Reflection in the yz-plane  

                    Character Table for D2h

                             E   C2(z) C2(y) C2(x) s(yz) s(xz) s(xy)   i  
                    ag       1     1     1     1     1     1     1     1  
                    b2u      1    -1     1    -1     1    -1     1    -1  y
                    b1u      1     1    -1    -1     1     1    -1    -1  z
                    b3g      1    -1    -1     1     1    -1    -1     1  yz, Rx
                    au       1     1     1     1    -1    -1    -1    -1  I
                    b2g      1    -1     1    -1    -1     1    -1     1  xz, Ry
                    b1g      1     1    -1    -1    -1    -1     1     1  xy, Rz
                    b3u      1    -1    -1     1    -1     1     1    -1  x
--


++    Basis set information:
      ----------------------


      Basis set label: C.AUG-CC-PVDZ.........

      Electronic valence basis set:
      ------------------
      Associated Effective Charge   6.000000 au
      Associated Actual Charge      6.000000 au
      Nuclear Model: Point charge

      Shell  nPrim  nBasis  Cartesian Spherical Contaminant
         s      10       4        X                  
         p       5       3        X                  
         d       2       2                 X         


      Basis set label: H.AUG-CC-PVDZ.........

      Electronic valence basis set:
      ------------------
      Associated Effective Charge   1.000000 au
      Associated Actual Charge      1.000000 au
      Nuclear Model: Point charge

      Shell  nPrim  nBasis  Cartesian Spherical Contaminant
         s       5       3        X                  
         p       2       2        X                  
--


++    Molecular structure info:
      -------------------------

                    ************************************************ 
                    **** Cartesian Coordinates / Bohr, Angstrom **** 
                    ************************************************ 

     Center  Label                x              y              z                     x              y              z
        1      C1              -1.256817       0.000000       0.000000             -0.665079       0.000000       0.000000
        2      C1               1.256817       0.000000       0.000000              0.665079       0.000000       0.000000
        3      H2              -2.339536       1.744862       0.000000             -1.238029       0.923341       0.000000
        4      H2               2.339536      -1.744862       0.000000              1.238029      -0.923341       0.000000
        5      H2               2.339536       1.744862       0.000000              1.238029       0.923341       0.000000
        6      H2              -2.339536      -1.744862       0.000000             -1.238029      -0.923341       0.000000

                    *************************************** 
                    *    InterNuclear Distances / Bohr    * 
                    *************************************** 

               1 C1            2 C1            3 H2            4 H2            5 H2            6 H2    
    1 C1       0.000000
    2 C1       2.513634        0.000000
    3 H2       2.053490        3.997286        0.000000
    4 H2       3.997286        2.053490        5.837112        0.000000
    5 H2       3.997286        2.053490        4.679071        3.489723        0.000000
    6 H2       2.053490        3.997286        3.489723        4.679071        5.837112        0.000000

                    ******************************************* 
                    *    InterNuclear Distances / Angstrom    * 
                    ******************************************* 

               1 C1            2 C1            3 H2            4 H2            5 H2            6 H2    
    1 C1       0.000000
    2 C1       1.330158        0.000000
    3 H2       1.086660        2.115273        0.000000
    4 H2       2.115273        1.086660        3.088867        0.000000
    5 H2       2.115273        1.086660        2.476058        1.846682        0.000000
    6 H2       1.086660        2.115273        1.846682        2.476058        3.088867        0.000000

                    ************************************** 
                    *    Valence Bond Angles / Degree    * 
                    ************************************** 
                          Atom centers                 Phi
                      2 C1       1 C1       3 H2       121.82
                      2 C1       1 C1       6 H2       121.82
                      3 H2       1 C1       6 H2       116.36
                      1 C1       2 C1       4 H2       121.82
                      1 C1       2 C1       5 H2       121.82
                      4 H2       2 C1       5 H2       116.36

           ***************************************************************
           *              Valence Dihedral Angles / Degree               *
           ***************************************************************
                    Atom centers                       Phi1     Phi2     Theta 
           3 H2       1 C1       2 C1       4 H2        121.82   121.82  -180.00
           3 H2       1 C1       2 C1       5 H2        121.82   121.82    -0.00
           4 H2       2 C1       1 C1       6 H2        121.82   121.82    -0.00
           5 H2       2 C1       1 C1       6 H2        121.82   121.82  -180.00
--


            Nuclear Potential Energy             33.35656706 au

--- Stop Module: gateway at Tue May 21 14:28:06 2024 /rc=_RC_ALL_IS_WELL_ ---
*** files: xmldump
    saved to directory /home/kenya/molcas_test/0521

--- Start Module: seward at Tue May 21 14:28:06 2024 ---

()()()()()()()()()()()()()()()()()()()()()()()()()()()()()()()()()()()()()()()()()()()()()()()()()()

                                              &SEWARD

                                   only a single process is used
                       available to each process: 2.0 GB of memory, 1 thread
                                             pid: 21174
()()()()()()()()()()()()()()()()()()()()()()()()()()()()()()()()()()()()()()()()()()()()()()()()()()

               SEWARD will generate:
                  Multipole Moment integrals up to order  2
                  Kinetic Energy integrals
                  Nuclear Attraction integrals (point charge)
                  One-Electron Hamiltonian integrals
                  Velocity integrals
                  Orbital angular momentum around ( 0.0000  0.0000  0.0000 )
                  Velocity quadrupole around ( 0.0000  0.0000  0.0000 )
                  Two-Electron Repulsion integrals

                   Integrals are discarded if absolute value <: 1.00E-14
                   Integral cutoff threshold is set to       <: 1.00E-16

                    Unitary symmetry adaptation


            Nuclear Potential Energy             33.35656706 au


      Basis set specifications :
      Symmetry species         ag   b2u  b1u  b3g  au   b2g  b1g  b3u
      Basis functions           18   12    7    4    4    7   12   18


      Input file to MOLDEN was generated!

--- Stop Module: seward at Tue May 21 14:28:08 2024 /rc=_RC_ALL_IS_WELL_ ---
*** files: c2h4_aug_PVDZ.GssOrb c2h4_aug_PVDZ.guessorb.molden xmldump
    saved to directory /home/kenya/molcas_test/0521
--- Module seward spent 1 second ---

*** symbolic link created: INPORB -> c2h4_aug_PVDZ.GssOrb
--- Start Module: scf at Tue May 21 14:28:08 2024 ---

()()()()()()()()()()()()()()()()()()()()()()()()()()()()()()()()()()()()()()()()()()()()()()()()()()

                                                &SCF

                                   only a single process is used
                       available to each process: 2.0 GB of memory, 1 thread
                                             pid: 21206
()()()()()()()()()()()()()()()()()()()()()()()()()()()()()()()()()()()()()()()()()()()()()()()()()()

++    Input section:
      --------------

      Header of the integral files:
      
       Integrals generated by Gateway/Seward, Tue May 21 14:28:06 2024


      Cartesian coordinates in Angstrom:
      -----------------------------------------------------
      No.  Label        X            Y            Z        
      -----------------------------------------------------
       1   C1        -0.66507900   0.00000000   0.00000000
       2   H2        -1.23802900   0.92334100   0.00000000
       3   C1         0.66507900   0.00000000   0.00000000
       4   H2         1.23802900  -0.92334100   0.00000000
       5   H2         1.23802900   0.92334100   0.00000000
       6   H2        -1.23802900  -0.92334100   0.00000000
      -----------------------------------------------------
      Nuclear repulsion energy =   33.35656706
--

++    Orbital specifications:
      -----------------------

      Symmetry species               1   2   3   4   5   6   7   8
                                    ag b2u b1u b3g  au b2g b1g b3u
      Frozen orbitals                0   0   0   0   0   0   0   0
      Occupied orbitals              3   1   1   0   0   0   1   2
      Secondary orbitals            15  11   6   4   4   7  11  16
      Deleted orbitals               0   0   0   0   0   0   0   0
      Total number of orbitals      18  12   7   4   4   7  12  18
      Number of basis functions     18  12   7   4   4   7  12  18
--

      Molecular charge                           0.000

++    Optimization specifications:
      ----------------------------

      SCF Algorithm: Conventional
      Minimized density differences are used
      Number of density matrices in core                 5
      Maximum number of NDDO SCF iterations            400
      Maximum number of HF SCF iterations              400
      Threshold for SCF energy change             1.00E-09
      Threshold for density matrix                1.00E-04
      Threshold for Fock matrix                   1.50E-04
      Threshold for linear dependence             1.00E-09
      Threshold at which DIIS is turned on        1.50E-01
      Maximum depth in the DIIS procedure                5
      Maximum depth in the BFGS Hessian update          30
      Threshold at which QNR/C2DIIS is turned on  7.50E-02
      Threshold for Norm(delta) (QNR/C2DIIS)      1.00E-03
      All orbitals punched on: SCFORB
--

      Input vectors read from INPORB
      Orbital file label: *Guess orbitals


++ Convergence information
                                   SCF        iterations: Energy and convergence statistics

Iter     Tot. SCF        One-elec.       Two-elec.     Energy      Max Dij or  Max Fij      DNorm      TNorm      AccCon     Time
         Energy          Energy          Energy        Change      Delta Norm                                                in Sec.
   1   -77.874461071  -167.905086074    56.674057938   0.00E+00    1.28E-01*   1.02E-01*    5.60E+00   7.63E+01   None         0.
   2   -78.027858383  -170.625790719    59.241365272  -1.53E-01*   9.46E-02*   5.24E-02*    3.83E+00   7.77E+01   EDIIS        0.
   3   -78.041466509  -169.687530131    58.289496557  -1.36E-02*   1.84E-02*   1.12E-02*    6.44E-01   7.73E+01   c2DIIS       0.
   4   -78.043338786  -170.006354005    58.606448155  -1.87E-03*   1.03E-02*   5.79E-03*    1.50E-01   7.75E+01   QNRc2DIIS    0.
   5   -78.043536073  -169.943471233    58.543368096  -1.97E-04*   5.61E-03*   1.32E-03*    1.74E-02   7.74E+01   QNRc2DIIS    0.
   6   -78.043570648  -169.960953849    58.560816137  -3.46E-05*   4.34E-04    1.76E-04*    2.92E-03   7.74E+01   QNRc2DIIS    0.
   7   -78.043571143  -169.959151107    58.559012900  -4.95E-07*   2.11E-04    4.46E-05     5.90E-04   7.74E+01   QNRc2DIIS    0.
   8   -78.043571198  -169.959068965    58.558930702  -5.48E-08*   1.67E-05    5.24E-06     1.89E-04   7.74E+01   QNRc2DIIS    0.
   9   -78.043571198  -169.959089621    58.558951358  -4.06E-10    9.76E-07    3.59E-07     4.23E-05   7.74E+01   QNRc2DIIS    0.

       Convergence after   9 Macro Iterations
--

 *****************************************************************************************************************************
 *                                                                                                                           *
 *                                             SCF/KS-DFT Program, Final results                                             *
 *                                                                                                                           *
 *                                                                                                                           *
 *                                                                                                                           *
 *                                                       Final Results                                                       *
 *                                                                                                                           *
 *****************************************************************************************************************************

::    Total SCF energy                                -78.0435711983
      One-electron energy                            -169.9590896206
      Two-electron energy                              58.5589513579
      Nuclear repulsion energy                         33.3565670644
      Kinetic energy (interpolated)                    77.9021977889
      Virial theorem                                    1.0018147551
      Total spin, S(S+1)                                0.0000000000
      Total spin, S                                     0.0000000000
      Max non-diagonal density matrix element           0.0000007967
      Max non-diagonal Fock matrix element              0.0000000685


      All orbitals with orbital energies smaller than  E(LUMO)+0.5 are printed

++    Molecular orbitals:
      -------------------

      Title: SCF orbitals

      Molecular orbitals for symmetry species 1: ag 

          Orbital            1         2         3         4         5         6         7         8         9    
          Energy          -11.2402   -1.0363   -0.5893    0.0404    0.1275    0.1786    0.2519    0.4069    0.5325
          Occ. No.          2.0000    2.0000    2.0000    0.0000    0.0000    0.0000    0.0000    0.0000    0.0000

        1 C1     1s         1.0026   -0.0328   -0.0024    0.0207    0.0087    0.0723   -0.0056   -0.0104    0.1536
        2 C1     2s         0.0135    0.8509   -0.0725   -0.0402   -0.0109    0.4610   -0.2527   -0.0151    0.1571
        3 C1     *s        -0.0278   -0.3013   -0.1162   -0.6732   -0.4113   -2.6792   -1.5543   -0.1537   -7.6967
        4 C1     *s        -0.0069   -0.0177   -0.0204   -2.8241   -2.1605   -6.7957   -0.4808    1.4224   -6.7681
        5 C1     2px       -0.0002    0.2452   -0.8616    0.1001   -0.1071   -0.1289    0.1903   -0.3619    0.0262
        6 C1     *px        0.0047   -0.0434    0.2363    0.2479    0.2715    0.9169    0.1396   -0.9323    2.3112
        7 C1     *px        0.0012   -0.0009   -0.0106    0.5334    3.1546    0.9566   -0.7479   -2.3993    0.8647
        8 C1     *d0       -0.0006   -0.0128   -0.0032   -0.0027    0.0148   -0.0365   -0.0329   -0.0144    0.0210
        9 C1     *d0        0.0019    0.0024   -0.0053    0.1103   -0.0439    0.3180   -0.1025    0.2079    1.1005
       10 C1     *d2+       0.0002    0.0247   -0.0338    0.0010   -0.0099    0.0088   -0.0533   -0.0724    0.0052
       11 C1     *d2+      -0.0012    0.0284    0.0695   -0.0513   -0.0582    0.2124    1.0167    0.4757    0.4787
       12 H2     1s         0.0009    0.3912    0.5851   -0.0416    0.0498    0.1453    0.2660    0.0107   -0.1995
       13 H2     *s         0.0158   -0.1233   -0.0481    1.0661    0.5126    4.3594    2.2313   -0.4835    9.4720
       14 H2     *s         0.0017    0.0064    0.0061    1.9732    0.9752    2.5523   -0.3375   -0.4909    1.8322
       15 H2     *px       -0.0002    0.0230   -0.0053   -0.0029    0.0264    0.0086    0.0123   -0.0292    0.0063
       16 H2     *px        0.0017    0.0132    0.0639    0.1048   -0.2842    0.6731    1.0072    1.9384    1.2882
       17 H2     *py        0.0004   -0.0281   -0.0247    0.0091   -0.0031   -0.0290    0.0064    0.0266   -0.0197
       18 H2     *py       -0.0050   -0.0068   -0.0097   -0.2784   -0.1989   -0.8494    0.9172    0.4539   -1.9348

      Molecular orbitals for symmetry species 2: b2u

          Orbital            1         2         3         4         5    
          Energy           -0.6414    0.0514    0.1775    0.2927    0.4720
          Occ. No.          2.0000    0.0000    0.0000    0.0000    0.0000

        1 C1     2py        0.6665   -0.1031    0.2867   -0.3293   -0.3202
        2 C1     *py       -0.2408   -0.4576   -1.7093   -0.9772   -2.7963
        3 C1     *py       -0.0137   -1.6669   -4.0137   -1.1145   -3.2031
        4 C1     *d2-      -0.0041    0.0017    0.0221   -0.0865    0.0576
        5 C1     *d2-       0.0541    0.0357    0.3410    0.5816    0.2656
        6 H2     1s         0.7371   -0.0221    0.1223    0.4677   -0.0551
        7 H2     *s        -0.0792    1.1915    4.4933    2.9446    6.2312
        8 H2     *s         0.0236    5.2898    7.1417    0.9746    4.4605
        9 H2     *px        0.0193   -0.0054    0.0085   -0.0142    0.0009
       10 H2     *px       -0.0030    0.2773    0.7780   -0.7814    2.0050
       11 H2     *py       -0.0200    0.0003   -0.0336    0.0037   -0.0461
       12 H2     *py       -0.0487   -0.2270   -0.9309   -0.1509    0.1386

      Molecular orbitals for symmetry species 3: b1u

          Orbital            1         2         3    
          Energy           -0.3775    0.1205    0.4386
          Occ. No.          2.0000    0.0000    0.0000

        1 C1     2pz        0.8090   -0.2278   -0.2556
        2 C1     *pz       -0.0093   -0.1109   -1.0970
        3 C1     *pz        0.0438    0.9286   -0.5782
        4 C1     *d1+       0.0440   -0.0090   -0.0445
        5 C1     *d1+       0.0165   -0.0684    0.1854
        6 H2     *pz        0.0279    0.0152   -0.0355
        7 H2     *pz        0.0136   -0.2091    1.9520

      Molecular orbitals for symmetry species 4: b3g

          Orbital            1    
          Energy            0.3274
          Occ. No.          0.0000

        1 C1     *d1-       0.0482
        2 C1     *d1-      -0.1173
        3 H2     *pz       -0.0292
        4 H2     *pz        1.3488

      Molecular orbitals for symmetry species 5: au 

          Orbital            1    
          Energy            0.4030
          Occ. No.          0.0000

        1 C1     *d1-       0.0766
        2 C1     *d1-      -1.4552
        3 H2     *pz       -0.0046
        4 H2     *pz        2.6587

      Molecular orbitals for symmetry species 6: b2g

          Orbital            1         2    
          Energy            0.1022    0.2095
          Occ. No.          0.0000    0.0000

        1 C1     2pz        0.3909   -0.6832
        2 C1     *pz        0.1530   -0.0171
        3 C1     *pz        2.4671    2.5947
        4 C1     *d1+      -0.0330    0.0289
        5 C1     *d1+       0.0133    0.1729
        6 H2     *pz        0.0340   -0.0090
        7 H2     *pz       -0.0729   -0.4558

      Molecular orbitals for symmetry species 7: b1g

          Orbital            1         2         3         4    
          Energy           -0.5045    0.0708    0.2066    0.4508
          Occ. No.          2.0000    0.0000    0.0000    0.0000

        1 C1     2py        0.6313   -0.0573    0.2566   -0.4448
        2 C1     *py       -0.1763   -0.5447   -1.0766    2.2758
        3 C1     *py       -0.1189   -6.4802  -13.8420  -11.2071
        4 C1     *d2-      -0.0615    0.0016   -0.0220   -0.0743
        5 C1     *d2-       0.1275    0.3894    1.1796    4.8297
        6 H2     1s         0.8783   -0.0182    0.1991    0.1424
        7 H2     *s         0.2244    2.2115    5.8210    9.5154
        8 H2     *s         0.1267   12.7403   15.4283    9.5194
        9 H2     *px        0.0201   -0.0040    0.0096   -0.0792
       10 H2     *px        0.0380    0.1742    0.3985   -2.0042
       11 H2     *py       -0.0121   -0.0054   -0.0292    0.0178
       12 H2     *py       -0.1198   -0.3775   -1.0660   -1.5329

      Molecular orbitals for symmetry species 8: b3u

          Orbital            1         2         3         4         5         6         7    
          Energy          -11.2385   -0.7929    0.0502    0.1468    0.2240    0.3285    0.4132
          Occ. No.          2.0000    2.0000    0.0000    0.0000    0.0000    0.0000    0.0000

        1 C1     1s         1.0034   -0.0178    0.0097   -0.0245   -0.0652   -0.0766   -0.0426
        2 C1     2s         0.0146    0.6754   -0.0756    0.0776   -0.4647   -0.5397   -0.3999
        3 C1     *s        -0.0526    0.0529   -0.2961    1.4097    1.4249    7.6367    2.9744
        4 C1     *s        -0.0234   -0.4381    0.7621   34.2228   48.2843  -25.0092   14.5099
        5 C1     2px       -0.0004   -0.3444    0.0382   -0.0404    0.1393    0.1207   -0.1700
        6 C1     *px       -0.0160    0.3329    0.7715    1.5286   -3.3301    8.4265    7.8896
        7 C1     *px       -0.0047   -0.1030    2.5833   15.2205   12.4241   -5.1879    7.9310
        8 C1     *d0       -0.0008   -0.0051   -0.0034    0.0013    0.0263   -0.0864   -0.0424
        9 C1     *d0        0.0028    0.0171    0.0128   -0.2374   -0.4339   -0.0090   -0.5082
       10 C1     *d2+       0.0001   -0.0180    0.0120    0.0114   -0.0104    0.0132    0.1446
       11 C1     *d2+      -0.0034    0.1129    0.0570    0.0217   -0.8200    2.5716    0.7856
       12 H2     1s         0.0005    0.6905   -0.0094    0.0446   -0.0784    0.4341   -0.0652
       13 H2     *s         0.0071   -0.0373    1.1366   -0.0893   -7.2873    8.2155    5.9087
       14 H2     *s        -0.0003   -0.0222    4.8838   10.0831    2.7439   -1.0194    5.2736
       15 H2     *px       -0.0003    0.0171   -0.0037    0.0131   -0.0125   -0.0041   -0.0235
       16 H2     *px        0.0011    0.0641    0.0435   -0.2345   -0.9527    0.7336   -0.5383
       17 H2     *py        0.0005   -0.0378    0.0051   -0.0026    0.0235    0.0353   -0.0102
       18 H2     *py       -0.0021   -0.0130   -0.3515   -0.3201    1.4430    0.0275   -2.5520
--


++    Molecular charges:
      ------------------

      Mulliken charges per centre and basis function type
      ---------------------------------------------------

                C1      H2    
      1s       2.0061  1.3017
      2s       1.4575  0.0000
      2px      1.2024  0.0000
      2pz      0.9359  0.0000
      2py      1.2022  0.0000
      *s      -0.4735 -0.0552
      *px     -0.3899 -0.0097
      *pz      0.0186  0.0120
      *py     -0.3811 -0.0100
      *d2+    -0.0211  0.0000
      *d1+     0.0216  0.0000
      *d0      0.0068  0.0000
      *d1-     0.0000  0.0000
      *d2-    -0.0628  0.0000
      Total    5.5227  1.2386

      N-E      0.4773 -0.2386

      Total electronic charge=   16.000000

      Total            charge=   -0.000000
--


++    Molecular properties:
      ---------------------

      Charge (e):
                      =   -0.0000
      Dipole Moment (Debye):
      Origin of the operator (Ang)=    0.0000    0.0000    0.0000
                   X=  0.0000E+00               Y=  0.0000E+00               Z=  0.0000E+00           Total=  0.0000E+00
      Quadrupole Moment (Debye*Ang):
      Origin of the operator (Ang)=    0.0000    0.0000    0.0000
                  XX= -1.2176E+01              XY=  0.0000E+00              XZ=  0.0000E+00              YY= -1.2458E+01
                  YZ=  0.0000E+00              ZZ= -1.6160E+01
      In traceless form (Debye*Ang)
                  XX=  2.1336E+00              XY=  0.0000E+00              XZ=  0.0000E+00              YY=  1.7100E+00
                  YZ=  0.0000E+00              ZZ= -3.8436E+00
--


      Input file to MOLDEN was generated!

 ###############################################################################
 ###############################################################################
 ###                                                                         ###
 ###                                                                         ###
 ###    WARNING: RunFile label nBas                                          ###
 ###    was used       60 times                                              ###
 ###                                                                         ###
 ###                                                                         ###
 ###############################################################################
 ###############################################################################
--- Stop Module: scf at Tue May 21 14:28:09 2024 /rc=_RC_ALL_IS_WELL_ ---
*** files: c2h4_aug_PVDZ.scf.molden c2h4_aug_PVDZ.ScfOrb xmldump
    saved to directory /home/kenya/molcas_test/0521

.##################.
.# Happy landing! #.
.##################.

    Timing: Wall=2.83 User=2.38 System=0.42
