[Molden Format]
[N_Atoms]
                    6
[Atoms] (AU)
C1          1      6          -1.25681716      0.00000000      0.00000000
C1          2      6           1.25681716      0.00000000      0.00000000
H2          3      1          -2.33953574      1.74486161      0.00000000
H2          4      1           2.33953574     -1.74486161      0.00000000
H2          5      1           2.33953574      1.74486161      0.00000000
H2          6      1          -2.33953574     -1.74486161      0.00000000
[5D]
[Charge] (Mulliken)
   0.0000000000000000     
   0.0000000000000000     
   0.0000000000000000     
   0.0000000000000000     
   0.0000000000000000     
   0.0000000000000000     
[GTO] (AU)
   1
   s   9
  6.665000000E+03  6.920001793E-04
  1.000000000E+03  5.329001381E-03
  2.280000000E+02  2.707700701E-02
  6.471000000E+01  1.017180264E-01
  2.106000000E+01  2.747400712E-01
  7.495000000E+00  4.485641162E-01
  2.797000000E+00  2.850740738E-01
  5.215000000E-01  1.520400394E-02
  1.596000000E-01 -3.191000827E-03
   s   9
  6.665000000E+03 -1.460000642E-04
  1.000000000E+03 -1.154000508E-03
  2.280000000E+02 -5.725002519E-03
  6.471000000E+01 -2.331201026E-02
  2.106000000E+01 -6.395502813E-02
  7.495000000E+00 -1.499810660E-01
  2.797000000E+00 -1.272620560E-01
  5.215000000E-01  5.445292395E-01
  1.596000000E-01  5.804962554E-01
   s   1
  1.596000000E-01  1.000000000E+00
   s   1
  4.690000000E-02  1.000000000E+00
   p   4
  9.439000000E+00  3.810902127E-02
  2.002000000E+00  2.094801169E-01
  5.456000000E-01  5.085572839E-01
  1.517000000E-01  4.688422617E-01
   p   1
  1.517000000E-01  1.000000000E+00
   p   1
  4.041000000E-02  1.000000000E+00
   d   1
  5.500000000E-01  1.000000000E+00
   d   1
  1.510000000E-01  1.000000000E+00
 
   2
   s   9
  6.665000000E+03  6.920001793E-04
  1.000000000E+03  5.329001381E-03
  2.280000000E+02  2.707700701E-02
  6.471000000E+01  1.017180264E-01
  2.106000000E+01  2.747400712E-01
  7.495000000E+00  4.485641162E-01
  2.797000000E+00  2.850740738E-01
  5.215000000E-01  1.520400394E-02
  1.596000000E-01 -3.191000827E-03
   s   9
  6.665000000E+03 -1.460000642E-04
  1.000000000E+03 -1.154000508E-03
  2.280000000E+02 -5.725002519E-03
  6.471000000E+01 -2.331201026E-02
  2.106000000E+01 -6.395502813E-02
  7.495000000E+00 -1.499810660E-01
  2.797000000E+00 -1.272620560E-01
  5.215000000E-01  5.445292395E-01
  1.596000000E-01  5.804962554E-01
   s   1
  1.596000000E-01  1.000000000E+00
   s   1
  4.690000000E-02  1.000000000E+00
   p   4
  9.439000000E+00  3.810902127E-02
  2.002000000E+00  2.094801169E-01
  5.456000000E-01  5.085572839E-01
  1.517000000E-01  4.688422617E-01
   p   1
  1.517000000E-01  1.000000000E+00
   p   1
  4.041000000E-02  1.000000000E+00
   d   1
  5.500000000E-01  1.000000000E+00
   d   1
  1.510000000E-01  1.000000000E+00
 
   3
   s   4
  1.301000000E+01  1.968498999E-02
  1.962000000E+00  1.379769298E-01
  4.446000000E-01  4.781477569E-01
  1.220000000E-01  5.012397451E-01
   s   1
  1.220000000E-01  1.000000000E+00
   s   1
  2.974000000E-02  1.000000000E+00
   p   1
  7.270000000E-01  1.000000000E+00
   p   1
  1.410000000E-01  1.000000000E+00
 
   4
   s   4
  1.301000000E+01  1.968498999E-02
  1.962000000E+00  1.379769298E-01
  4.446000000E-01  4.781477569E-01
  1.220000000E-01  5.012397451E-01
   s   1
  1.220000000E-01  1.000000000E+00
   s   1
  2.974000000E-02  1.000000000E+00
   p   1
  7.270000000E-01  1.000000000E+00
   p   1
  1.410000000E-01  1.000000000E+00
 
   5
   s   4
  1.301000000E+01  1.968498999E-02
  1.962000000E+00  1.379769298E-01
  4.446000000E-01  4.781477569E-01
  1.220000000E-01  5.012397451E-01
   s   1
  1.220000000E-01  1.000000000E+00
   s   1
  2.974000000E-02  1.000000000E+00
   p   1
  7.270000000E-01  1.000000000E+00
   p   1
  1.410000000E-01  1.000000000E+00
 
   6
   s   4
  1.301000000E+01  1.968498999E-02
  1.962000000E+00  1.379769298E-01
  4.446000000E-01  4.781477569E-01
  1.220000000E-01  5.012397451E-01
   s   1
  1.220000000E-01  1.000000000E+00
   s   1
  2.974000000E-02  1.000000000E+00
   p   1
  7.270000000E-01  1.000000000E+00
   p   1
  1.410000000E-01  1.000000000E+00
 
[MO]
Sym=     1ag 
Ene=   -11.3500
Spin= Alpha
Occup=    2.00000
   1         0.70568485
   2         0.00344377
   3         0.00024561
   4         0.00178658
   5         0.00286388
   6         0.00000000
   7         0.00000000
   8        -0.00027176
   9         0.00000000
  10         0.00000000
  11         0.00004005
  12         0.00000000
  13         0.00000000
  14        -0.00000000
  15         0.00000000
  16         0.00000000
  17        -0.00000000
  18         0.00000000
  19         0.00000000
  20         0.00000000
  21         0.00000000
  22         0.00000000
  23         0.00000000
  24         0.70568485
  25         0.00344377
  26         0.00024561
  27         0.00178658
  28        -0.00286388
  29         0.00000000
  30         0.00000000
  31         0.00027176
  32         0.00000000
  33         0.00000000
  34        -0.00004005
  35         0.00000000
  36         0.00000000
  37        -0.00000000
  38         0.00000000
  39         0.00000000
  40        -0.00000000
  41         0.00000000
  42         0.00000000
  43         0.00000000
  44         0.00000000
  45         0.00000000
  46         0.00000000
  47         0.00354077
  48        -0.00064384
  49         0.00011304
  50        -0.00000000
  51         0.00000000
  52         0.00000000
  53         0.00000000
  54        -0.00000000
  55         0.00000000
  56         0.00354077
  57        -0.00064384
  58         0.00011304
  59         0.00000000
  60        -0.00000000
  61         0.00000000
  62        -0.00000000
  63         0.00000000
  64         0.00000000
  65         0.00354077
  66        -0.00064384
  67         0.00011304
  68         0.00000000
  69         0.00000000
  70         0.00000000
  71        -0.00000000
  72        -0.00000000
  73         0.00000000
  74         0.00354077
  75        -0.00064384
  76         0.00011304
  77        -0.00000000
  78        -0.00000000
  79         0.00000000
  80         0.00000000
  81         0.00000000
  82         0.00000000
Sym=     2ag 
Ene=    -1.4782
Spin= Alpha
Occup=    2.00000
   1        -0.05754368
   2         0.43152134
   3        -0.04729923
   4         0.00643619
   5         0.07326023
   6         0.00000000
   7         0.00000000
   8        -0.00695176
   9         0.00000000
  10         0.00000000
  11         0.00102450
  12         0.00000000
  13         0.00000000
  14        -0.00000000
  15         0.00000000
  16         0.00000000
  17        -0.00000000
  18         0.00000000
  19         0.00000000
  20         0.00000000
  21         0.00000000
  22         0.00000000
  23         0.00000000
  24        -0.05754368
  25         0.43152134
  26        -0.04729923
  27         0.00643619
  28        -0.07326023
  29         0.00000000
  30         0.00000000
  31         0.00695176
  32         0.00000000
  33         0.00000000
  34        -0.00102450
  35         0.00000000
  36         0.00000000
  37        -0.00000000
  38         0.00000000
  39         0.00000000
  40        -0.00000000
  41         0.00000000
  42         0.00000000
  43         0.00000000
  44         0.00000000
  45         0.00000000
  46         0.00000000
  47         0.19369951
  48        -0.03522173
  49         0.00618388
  50        -0.00000000
  51         0.00000000
  52         0.00000000
  53         0.00000000
  54        -0.00000000
  55         0.00000000
  56         0.19369951
  57        -0.03522173
  58         0.00618388
  59         0.00000000
  60        -0.00000000
  61         0.00000000
  62        -0.00000000
  63         0.00000000
  64         0.00000000
  65         0.19369951
  66        -0.03522173
  67         0.00618388
  68         0.00000000
  69         0.00000000
  70         0.00000000
  71        -0.00000000
  72        -0.00000000
  73         0.00000000
  74         0.19369951
  75        -0.03522173
  76         0.00618388
  77        -0.00000000
  78        -0.00000000
  79         0.00000000
  80         0.00000000
  81         0.00000000
  82         0.00000000
Sym=     3ag 
Ene=    -0.6057
Spin= Alpha
Occup=    2.00000
   1         0.01515752
   2        -0.11615333
   3         0.01273132
   4        -0.00173325
   5        -0.56400918
   6         0.00000000
   7         0.00000000
   8         0.05351959
   9         0.00000000
  10         0.00000000
  11        -0.00788731
  12         0.00000000
  13         0.00000000
  14        -0.00000000
  15         0.00000000
  16         0.00000000
  17        -0.00000000
  18         0.00000000
  19        -0.00000000
  20         0.00000000
  21         0.00000000
  22        -0.00000000
  23         0.00000000
  24         0.01515752
  25        -0.11615333
  26         0.01273132
  27        -0.00173325
  28         0.56400918
  29         0.00000000
  30         0.00000000
  31        -0.05351959
  32         0.00000000
  33         0.00000000
  34         0.00788731
  35         0.00000000
  36         0.00000000
  37        -0.00000000
  38         0.00000000
  39         0.00000000
  40        -0.00000000
  41         0.00000000
  42        -0.00000000
  43         0.00000000
  44         0.00000000
  45        -0.00000000
  46         0.00000000
  47         0.24782975
  48        -0.04506461
  49         0.00791200
  50         0.00000000
  51         0.00000000
  52         0.00000000
  53        -0.00000000
  54         0.00000000
  55         0.00000000
  56         0.24782975
  57        -0.04506461
  58         0.00791200
  59        -0.00000000
  60        -0.00000000
  61         0.00000000
  62         0.00000000
  63        -0.00000000
  64         0.00000000
  65         0.24782975
  66        -0.04506461
  67         0.00791200
  68        -0.00000000
  69         0.00000000
  70         0.00000000
  71         0.00000000
  72         0.00000000
  73         0.00000000
  74         0.24782975
  75        -0.04506461
  76         0.00791200
  77         0.00000000
  78        -0.00000000
  79         0.00000000
  80        -0.00000000
  81        -0.00000000
  82         0.00000000
Sym=     4ag 
Ene=    -0.1398
Spin= Alpha
Occup=    0.00000
   1        -0.13554173
   2        -1.01724362
   3         0.11126119
   4        -0.01583870
   5         0.60856233
   6         0.00000000
   7         0.00000000
   8        -0.05774730
   9         0.00000000
  10         0.00000000
  11         0.00851036
  12         0.00000000
  13         0.00000000
  14        -0.00000000
  15         0.00000000
  16         0.00000000
  17         0.00000000
  18         0.00000000
  19        -0.00000000
  20         0.00000000
  21         0.00000000
  22        -0.00000000
  23         0.00000000
  24        -0.13554173
  25        -1.01724362
  26         0.11126119
  27        -0.01583870
  28        -0.60856233
  29         0.00000000
  30         0.00000000
  31         0.05774730
  32         0.00000000
  33         0.00000000
  34        -0.00851036
  35         0.00000000
  36         0.00000000
  37        -0.00000000
  38         0.00000000
  39         0.00000000
  40         0.00000000
  41         0.00000000
  42        -0.00000000
  43         0.00000000
  44         0.00000000
  45        -0.00000000
  46         0.00000000
  47         0.74738890
  48        -0.13590294
  49         0.02386049
  50         0.00000000
  51         0.00000000
  52         0.00000000
  53        -0.00000000
  54         0.00000000
  55         0.00000000
  56         0.74738890
  57        -0.13590294
  58         0.02386049
  59        -0.00000000
  60        -0.00000000
  61         0.00000000
  62         0.00000000
  63        -0.00000000
  64         0.00000000
  65         0.74738890
  66        -0.13590294
  67         0.02386049
  68        -0.00000000
  69         0.00000000
  70         0.00000000
  71         0.00000000
  72         0.00000000
  73         0.00000000
  74         0.74738890
  75        -0.13590294
  76         0.02386049
  77         0.00000000
  78        -0.00000000
  79         0.00000000
  80        -0.00000000
  81        -0.00000000
  82         0.00000000
Sym=     5ag 
Ene=     3.0746
Spin= Alpha
Occup=    0.00000
   1         0.02307885
   2         0.09571110
   3        -0.65419714
   4        -2.91398250
   5        -0.01324851
   6         0.00000000
   7         0.00000000
   8         0.26954363
   9         0.00000000
  10         0.00000000
  11         0.60157937
  12         0.00000000
  13         0.00000000
  14        -0.00141964
  15         0.00000000
  16         0.00000000
  17         0.00730694
  18         0.00000000
  19         0.13247341
  20         0.00000000
  21         0.00000000
  22        -0.08029624
  23         0.00000000
  24         0.02307885
  25         0.09571110
  26        -0.65419714
  27        -2.91398250
  28         0.01324851
  29         0.00000000
  30         0.00000000
  31        -0.26954363
  32         0.00000000
  33         0.00000000
  34        -0.60157937
  35         0.00000000
  36         0.00000000
  37        -0.00141964
  38         0.00000000
  39         0.00000000
  40         0.00730694
  41         0.00000000
  42         0.13247341
  43         0.00000000
  44         0.00000000
  45        -0.08029624
  46         0.00000000
  47        -0.02613512
  48         0.71613517
  49         1.26974544
  50         0.00266644
  51        -0.00561828
  52         0.00000000
  53         0.08289661
  54        -0.30123039
  55         0.00000000
  56        -0.02613512
  57         0.71613517
  58         1.26974544
  59        -0.00266644
  60         0.00561828
  61         0.00000000
  62        -0.08289661
  63         0.30123039
  64         0.00000000
  65        -0.02613512
  66         0.71613517
  67         1.26974544
  68        -0.00266644
  69        -0.00561828
  70         0.00000000
  71        -0.08289661
  72        -0.30123039
  73         0.00000000
  74        -0.02613512
  75         0.71613517
  76         1.26974544
  77         0.00266644
  78         0.00561828
  79         0.00000000
  80         0.08289661
  81         0.30123039
  82         0.00000000
Sym=     6ag 
Ene=     3.1456
Spin= Alpha
Occup=    0.00000
   1         0.01198446
   2         0.03054433
   3        -0.03283000
   4        -1.31556425
   5        -0.02183892
   6         0.00000000
   7         0.00000000
   8         0.04951885
   9         0.00000000
  10         0.00000000
  11         2.37628864
  12         0.00000000
  13         0.00000000
  14         0.01183141
  15         0.00000000
  16         0.00000000
  17         0.00367231
  18         0.00000000
  19        -0.06420080
  20         0.00000000
  21         0.00000000
  22        -0.09737402
  23         0.00000000
  24         0.01198446
  25         0.03054433
  26        -0.03283000
  27        -1.31556425
  28         0.02183892
  29         0.00000000
  30         0.00000000
  31        -0.04951885
  32         0.00000000
  33         0.00000000
  34        -2.37628864
  35         0.00000000
  36         0.00000000
  37         0.01183141
  38         0.00000000
  39         0.00000000
  40         0.00367231
  41         0.00000000
  42        -0.06420080
  43         0.00000000
  44         0.00000000
  45        -0.09737402
  46         0.00000000
  47        -0.00657498
  48         0.04778661
  49         0.43582821
  50         0.01212054
  51        -0.00401312
  52         0.00000000
  53        -0.25800309
  54        -0.09651662
  55         0.00000000
  56        -0.00657498
  57         0.04778661
  58         0.43582821
  59        -0.01212054
  60         0.00401312
  61         0.00000000
  62         0.25800309
  63         0.09651662
  64         0.00000000
  65        -0.00657498
  66         0.04778661
  67         0.43582821
  68        -0.01212054
  69        -0.00401312
  70         0.00000000
  71         0.25800309
  72        -0.09651662
  73         0.00000000
  74        -0.00657498
  75         0.04778661
  76         0.43582821
  77         0.01212054
  78         0.00401312
  79         0.00000000
  80        -0.25800309
  81         0.09651662
  82         0.00000000
Sym=     7ag 
Ene=     3.2226
Spin= Alpha
Occup=    0.00000
   1         0.02959659
   2         0.12895142
   3        -2.67345059
   4        -5.01523319
   5        -0.01460355
   6         0.00000000
   7         0.00000000
   8         0.80698471
   9         0.00000000
  10         0.00000000
  11         0.60278030
  12         0.00000000
  13         0.00000000
  14        -0.01198821
  15         0.00000000
  16         0.00000000
  17        -0.00319451
  18         0.00000000
  19         0.26253350
  20         0.00000000
  21         0.00000000
  22         0.42001596
  23         0.00000000
  24         0.02959659
  25         0.12895142
  26        -2.67345059
  27        -5.01523319
  28         0.01460355
  29         0.00000000
  30         0.00000000
  31        -0.80698471
  32         0.00000000
  33         0.00000000
  34        -0.60278030
  35         0.00000000
  36         0.00000000
  37        -0.01198821
  38         0.00000000
  39         0.00000000
  40        -0.00319451
  41         0.00000000
  42         0.26253350
  43         0.00000000
  44         0.00000000
  45         0.42001596
  46         0.00000000
  47         0.04350090
  48         3.08251708
  49         1.10782043
  50         0.00616263
  51        -0.01596911
  52         0.00000000
  53         0.54045673
  54        -0.34584716
  55         0.00000000
  56         0.04350090
  57         3.08251708
  58         1.10782043
  59        -0.00616263
  60         0.01596911
  61         0.00000000
  62        -0.54045673
  63         0.34584716
  64         0.00000000
  65         0.04350090
  66         3.08251708
  67         1.10782043
  68        -0.00616263
  69        -0.01596911
  70         0.00000000
  71        -0.54045673
  72        -0.34584716
  73         0.00000000
  74         0.04350090
  75         3.08251708
  76         1.10782043
  77         0.00616263
  78         0.01596911
  79         0.00000000
  80         0.54045673
  81         0.34584716
  82         0.00000000
Sym=     8ag 
Ene=     3.4792
Spin= Alpha
Occup=    0.00000
   1        -0.01428935
   2        -0.03496479
   3        -0.89568884
   4         1.69353527
   5        -0.05922024
   6         0.00000000
   7         0.00000000
   8        -1.18091651
   9         0.00000000
  10         0.00000000
  11        -1.72102716
  12         0.00000000
  13         0.00000000
  14        -0.00178618
  15         0.00000000
  16         0.00000000
  17        -0.03990823
  18         0.00000000
  19        -0.10546596
  20         0.00000000
  21         0.00000000
  22         1.56551339
  23         0.00000000
  24        -0.01428935
  25        -0.03496479
  26        -0.89568884
  27         1.69353527
  28         0.05922024
  29         0.00000000
  30         0.00000000
  31         1.18091651
  32         0.00000000
  33         0.00000000
  34         1.72102716
  35         0.00000000
  36         0.00000000
  37        -0.00178618
  38         0.00000000
  39         0.00000000
  40        -0.03990823
  41         0.00000000
  42        -0.10546596
  43         0.00000000
  44         0.00000000
  45         1.56551339
  46         0.00000000
  47        -0.02040362
  48         0.07644191
  49        -0.50207169
  50        -0.01256357
  51        -0.01203838
  52         0.00000000
  53         1.54104909
  54         0.84445702
  55         0.00000000
  56        -0.02040362
  57         0.07644191
  58        -0.50207169
  59         0.01256357
  60         0.01203838
  61         0.00000000
  62        -1.54104909
  63        -0.84445702
  64         0.00000000
  65        -0.02040362
  66         0.07644191
  67        -0.50207169
  68         0.01256357
  69        -0.01203838
  70         0.00000000
  71        -1.54104909
  72         0.84445702
  73         0.00000000
  74        -0.02040362
  75         0.07644191
  76        -0.50207169
  77        -0.01256357
  78         0.01203838
  79         0.00000000
  80         1.54104909
  81        -0.84445702
  82         0.00000000
Sym=     9ag 
Ene=     3.6502
Spin= Alpha
Occup=    0.00000
   1        -0.06265314
   2        -0.17929245
   3         3.64717233
   4        -0.26964226
   5        -0.04230430
   6         0.00000000
   7         0.00000000
   8        -0.68440571
   9         0.00000000
  10         0.00000000
  11        -0.14097655
  12         0.00000000
  13         0.00000000
  14        -0.03277232
  15         0.00000000
  16         0.00000000
  17        -0.00945768
  18         0.00000000
  19         0.59163325
  20         0.00000000
  21         0.00000000
  22         0.33854949
  23         0.00000000
  24        -0.06265314
  25        -0.17929245
  26         3.64717233
  27        -0.26964226
  28         0.04230430
  29         0.00000000
  30         0.00000000
  31         0.68440571
  32         0.00000000
  33         0.00000000
  34         0.14097655
  35         0.00000000
  36         0.00000000
  37        -0.03277232
  38         0.00000000
  39         0.00000000
  40        -0.00945768
  41         0.00000000
  42         0.59163325
  43         0.00000000
  44         0.00000000
  45         0.33854949
  46         0.00000000
  47        -0.11128704
  48        -0.83859358
  49        -0.08392911
  50         0.02340274
  51        -0.04563835
  52         0.00000000
  53        -0.47148679
  54         1.32023334
  55         0.00000000
  56        -0.11128704
  57        -0.83859358
  58        -0.08392911
  59        -0.02340274
  60         0.04563835
  61         0.00000000
  62         0.47148679
  63        -1.32023334
  64         0.00000000
  65        -0.11128704
  66        -0.83859358
  67        -0.08392911
  68        -0.02340274
  69        -0.04563835
  70         0.00000000
  71         0.47148679
  72         1.32023334
  73         0.00000000
  74        -0.11128704
  75        -0.83859358
  76        -0.08392911
  77         0.02340274
  78         0.04563835
  79         0.00000000
  80        -0.47148679
  81        -1.32023334
  82         0.00000000
Sym=    10ag 
Ene=     3.6730
Spin= Alpha
Occup=    0.00000
   1        -0.02363495
   2        -0.01156529
   3        -5.12543700
   4         0.10705516
   5        -0.06655403
   6         0.00000000
   7         0.00000000
   8         1.49288690
   9         0.00000000
  10         0.00000000
  11         0.46049483
  12         0.00000000
  13         0.00000000
  14         0.08116520
  15         0.00000000
  16         0.00000000
  17        -0.01456964
  18         0.00000000
  19        -0.66806764
  20         0.00000000
  21         0.00000000
  22         2.29365827
  23         0.00000000
  24        -0.02363495
  25        -0.01156529
  26        -5.12543700
  27         0.10705516
  28         0.06655403
  29         0.00000000
  30         0.00000000
  31        -1.49288690
  32         0.00000000
  33         0.00000000
  34        -0.46049483
  35         0.00000000
  36         0.00000000
  37         0.08116520
  38         0.00000000
  39         0.00000000
  40        -0.01456964
  41         0.00000000
  42        -0.66806764
  43         0.00000000
  44         0.00000000
  45         2.29365827
  46         0.00000000
  47        -0.02857733
  48         2.37001284
  49        -0.13211335
  50         0.06032705
  51        -0.05704790
  52         0.00000000
  53         0.90275850
  54        -0.00677713
  55         0.00000000
  56        -0.02857733
  57         2.37001284
  58        -0.13211335
  59        -0.06032705
  60         0.05704790
  61         0.00000000
  62        -0.90275850
  63         0.00677713
  64         0.00000000
  65        -0.02857733
  66         2.37001284
  67        -0.13211335
  68        -0.06032705
  69        -0.05704790
  70         0.00000000
  71        -0.90275850
  72        -0.00677713
  73         0.00000000
  74        -0.02857733
  75         2.37001284
  76        -0.13211335
  77         0.06032705
  78         0.05704790
  79         0.00000000
  80         0.90275850
  81         0.00677713
  82         0.00000000
Sym=    11ag 
Ene=     3.8025
Spin= Alpha
Occup=    0.00000
   1         0.27987057
   2         0.78996573
   3        -8.90238554
   4        -4.22156236
   5         0.01122867
   6         0.00000000
   7         0.00000000
   8         1.82722790
   9         0.00000000
  10         0.00000000
  11         0.31271952
  12         0.00000000
  13         0.00000000
  14        -0.09776642
  15         0.00000000
  16         0.00000000
  17        -0.04817458
  18         0.00000000
  19         0.72236323
  20         0.00000000
  21         0.00000000
  22         1.29310335
  23         0.00000000
  24         0.27987057
  25         0.78996573
  26        -8.90238554
  27        -4.22156236
  28        -0.01122867
  29         0.00000000
  30         0.00000000
  31        -1.82722790
  32         0.00000000
  33         0.00000000
  34        -0.31271952
  35         0.00000000
  36         0.00000000
  37        -0.09776642
  38         0.00000000
  39         0.00000000
  40        -0.04817458
  41         0.00000000
  42         0.72236323
  43         0.00000000
  44         0.00000000
  45         1.29310335
  46         0.00000000
  47         0.08243107
  48         5.60794448
  49         0.77727581
  50        -0.01637906
  51         0.05437176
  52         0.00000000
  53         1.45756247
  54        -1.18688541
  55         0.00000000
  56         0.08243107
  57         5.60794448
  58         0.77727581
  59         0.01637906
  60        -0.05437176
  61         0.00000000
  62        -1.45756247
  63         1.18688541
  64         0.00000000
  65         0.08243107
  66         5.60794448
  67         0.77727581
  68         0.01637906
  69         0.05437176
  70         0.00000000
  71        -1.45756247
  72        -1.18688541
  73         0.00000000
  74         0.08243107
  75         5.60794448
  76         0.77727581
  77        -0.01637906
  78        -0.05437176
  79         0.00000000
  80         1.45756247
  81         1.18688541
  82         0.00000000
Sym=    12ag 
Ene=     4.2695
Spin= Alpha
Occup=    0.00000
   1        -0.27574317
   2        -0.90702800
   3         2.33808247
   4         1.90508091
   5         0.27701205
   6         0.00000000
   7         0.00000000
   8        -1.95928070
   9         0.00000000
  10         0.00000000
  11        -0.94470025
  12         0.00000000
  13         0.00000000
  14        -0.17477944
  15         0.00000000
  16         0.00000000
  17        -0.17988983
  18         0.00000000
  19        -0.17911713
  20         0.00000000
  21         0.00000000
  22         2.34907757
  23         0.00000000
  24        -0.27574317
  25        -0.90702800
  26         2.33808247
  27         1.90508091
  28        -0.27701205
  29         0.00000000
  30         0.00000000
  31         1.95928070
  32         0.00000000
  33         0.00000000
  34         0.94470025
  35         0.00000000
  36         0.00000000
  37        -0.17477944
  38         0.00000000
  39         0.00000000
  40        -0.17988983
  41         0.00000000
  42        -0.17911713
  43         0.00000000
  44         0.00000000
  45         2.34907757
  46         0.00000000
  47         0.39042762
  48        -1.84881340
  49        -0.41087506
  50        -0.10491310
  51         0.22870716
  52         0.00000000
  53         1.13900379
  54         1.21056869
  55         0.00000000
  56         0.39042762
  57        -1.84881340
  58        -0.41087506
  59         0.10491310
  60        -0.22870716
  61         0.00000000
  62        -1.13900379
  63        -1.21056869
  64         0.00000000
  65         0.39042762
  66        -1.84881340
  67        -0.41087506
  68         0.10491310
  69         0.22870716
  70         0.00000000
  71        -1.13900379
  72         1.21056869
  73         0.00000000
  74         0.39042762
  75        -1.84881340
  76        -0.41087506
  77        -0.10491310
  78        -0.22870716
  79         0.00000000
  80         1.13900379
  81        -1.21056869
  82         0.00000000
Sym=    13ag 
Ene=     5.1762
Spin= Alpha
Occup=    0.00000
   1        -0.21146395
   2        -0.87777453
   3        -4.00763476
   4        -0.11217101
   5        -0.62843428
   6         0.00000000
   7         0.00000000
   8         2.72033351
   9         0.00000000
  10         0.00000000
  11         0.07177257
  12         0.00000000
  13         0.00000000
  14         0.06419889
  15         0.00000000
  16         0.00000000
  17        -0.35671893
  18         0.00000000
  19        -0.29030880
  20         0.00000000
  21         0.00000000
  22         2.47470310
  23         0.00000000
  24        -0.21146395
  25        -0.87777453
  26        -4.00763476
  27        -0.11217101
  28         0.62843428
  29         0.00000000
  30         0.00000000
  31        -2.72033351
  32         0.00000000
  33         0.00000000
  34        -0.07177257
  35         0.00000000
  36         0.00000000
  37         0.06419889
  38         0.00000000
  39         0.00000000
  40        -0.35671893
  41         0.00000000
  42        -0.29030880
  43         0.00000000
  44         0.00000000
  45         2.47470310
  46         0.00000000
  47         0.89107867
  48         1.47958773
  49        -0.04746578
  50         0.09225155
  51        -0.01628446
  52         0.00000000
  53         0.80558315
  54         0.06777394
  55         0.00000000
  56         0.89107867
  57         1.47958773
  58        -0.04746578
  59        -0.09225155