[Molden Format]
[N_Atoms]
                    6
[Atoms] (AU)
C1          1      6          -1.25681716      0.00000000      0.00000000
C1          2      6           1.25681716      0.00000000      0.00000000
H2          3      1          -2.33953574      1.74486161      0.00000000
H2          4      1           2.33953574     -1.74486161      0.00000000
H2          5      1           2.33953574      1.74486161      0.00000000
H2          6      1          -2.33953574     -1.74486161      0.00000000
[5D]
[Charge] (Mulliken)
  0.95456462349716986     
  0.95456462349716986     
 -0.95456462349725779     
 -0.95456462349725779     
 -0.95456462349725779     
 -0.95456462349725779     
[GTO] (AU)
   1
   s   9
  6.665000000E+03  6.920001793E-04
  1.000000000E+03  5.329001381E-03
  2.280000000E+02  2.707700701E-02
  6.471000000E+01  1.017180264E-01
  2.106000000E+01  2.747400712E-01
  7.495000000E+00  4.485641162E-01
  2.797000000E+00  2.850740738E-01
  5.215000000E-01  1.520400394E-02
  1.596000000E-01 -3.191000827E-03
   s   9
  6.665000000E+03 -1.460000642E-04
  1.000000000E+03 -1.154000508E-03
  2.280000000E+02 -5.725002519E-03
  6.471000000E+01 -2.331201026E-02
  2.106000000E+01 -6.395502813E-02
  7.495000000E+00 -1.499810660E-01
  2.797000000E+00 -1.272620560E-01
  5.215000000E-01  5.445292395E-01
  1.596000000E-01  5.804962554E-01
   s   1
  1.596000000E-01  1.000000000E+00
   s   1
  4.690000000E-02  1.000000000E+00
   p   4
  9.439000000E+00  3.810902127E-02
  2.002000000E+00  2.094801169E-01
  5.456000000E-01  5.085572839E-01
  1.517000000E-01  4.688422617E-01
   p   1
  1.517000000E-01  1.000000000E+00
   p   1
  4.041000000E-02  1.000000000E+00
   d   1
  5.500000000E-01  1.000000000E+00
   d   1
  1.510000000E-01  1.000000000E+00
 
   2
   s   9
  6.665000000E+03  6.920001793E-04
  1.000000000E+03  5.329001381E-03
  2.280000000E+02  2.707700701E-02
  6.471000000E+01  1.017180264E-01
  2.106000000E+01  2.747400712E-01
  7.495000000E+00  4.485641162E-01
  2.797000000E+00  2.850740738E-01
  5.215000000E-01  1.520400394E-02
  1.596000000E-01 -3.191000827E-03
   s   9
  6.665000000E+03 -1.460000642E-04
  1.000000000E+03 -1.154000508E-03
  2.280000000E+02 -5.725002519E-03
  6.471000000E+01 -2.331201026E-02
  2.106000000E+01 -6.395502813E-02
  7.495000000E+00 -1.499810660E-01
  2.797000000E+00 -1.272620560E-01
  5.215000000E-01  5.445292395E-01
  1.596000000E-01  5.804962554E-01
   s   1
  1.596000000E-01  1.000000000E+00
   s   1
  4.690000000E-02  1.000000000E+00
   p   4
  9.439000000E+00  3.810902127E-02
  2.002000000E+00  2.094801169E-01
  5.456000000E-01  5.085572839E-01
  1.517000000E-01  4.688422617E-01
   p   1
  1.517000000E-01  1.000000000E+00
   p   1
  4.041000000E-02  1.000000000E+00
   d   1
  5.500000000E-01  1.000000000E+00
   d   1
  1.510000000E-01  1.000000000E+00
 
   3
   s   4
  1.301000000E+01  1.968498999E-02
  1.962000000E+00  1.379769298E-01
  4.446000000E-01  4.781477569E-01
  1.220000000E-01  5.012397451E-01
   s   1
  1.220000000E-01  1.000000000E+00
   s   1
  2.974000000E-02  1.000000000E+00
   p   1
  7.270000000E-01  1.000000000E+00
   p   1
  1.410000000E-01  1.000000000E+00
 
   4
   s   4
  1.301000000E+01  1.968498999E-02
  1.962000000E+00  1.379769298E-01
  4.446000000E-01  4.781477569E-01
  1.220000000E-01  5.012397451E-01
   s   1
  1.220000000E-01  1.000000000E+00
   s   1
  2.974000000E-02  1.000000000E+00
   p   1
  7.270000000E-01  1.000000000E+00
   p   1
  1.410000000E-01  1.000000000E+00
 
   5
   s   4
  1.301000000E+01  1.968498999E-02
  1.962000000E+00  1.379769298E-01
  4.446000000E-01  4.781477569E-01
  1.220000000E-01  5.012397451E-01
   s   1
  1.220000000E-01  1.000000000E+00
   s   1
  2.974000000E-02  1.000000000E+00
   p   1
  7.270000000E-01  1.000000000E+00
   p   1
  1.410000000E-01  1.000000000E+00
 
   6
   s   4
  1.301000000E+01  1.968498999E-02
  1.962000000E+00  1.379769298E-01
  4.446000000E-01  4.781477569E-01
  1.220000000E-01  5.012397451E-01
   s   1
  1.220000000E-01  1.000000000E+00
   s   1
  2.974000000E-02  1.000000000E+00
   p   1
  7.270000000E-01  1.000000000E+00
   p   1
  1.410000000E-01  1.000000000E+00
 
[MO]
Sym=     1ag 
Ene=   -11.2400
Spin= Alpha
Occup=    2.00000
   1         0.70894696
   2         0.00954677
   3        -0.01965665
   4        -0.00485470
   5        -0.00011833
   6         0.00000000
   7         0.00000000
   8         0.00331591
   9         0.00000000
  10         0.00000000
  11         0.00086382
  12         0.00000000
  13         0.00000000
  14        -0.00039740
  15         0.00000000
  16         0.00000000
  17         0.00014116
  18         0.00000000
  19         0.00133341
  20         0.00000000
  21         0.00000000
  22        -0.00082069
  23         0.00000000
  24         0.70894696
  25         0.00954677
  26        -0.01965665
  27        -0.00485470
  28         0.00011833
  29         0.00000000
  30         0.00000000
  31        -0.00331591
  32         0.00000000
  33         0.00000000
  34        -0.00086382
  35         0.00000000
  36         0.00000000
  37        -0.00039740
  38         0.00000000
  39         0.00000000
  40         0.00014116
  41         0.00000000
  42         0.00133341
  43         0.00000000
  44         0.00000000
  45        -0.00082069
  46         0.00000000
  47         0.00042874
  48         0.00788645
  49         0.00087105
  50        -0.00009396
  51         0.00021410
  52         0.00000000
  53         0.00087100
  54        -0.00248885
  55         0.00000000
  56         0.00042874
  57         0.00788645
  58         0.00087105
  59         0.00009396
  60        -0.00021410
  61         0.00000000
  62        -0.00087100
  63         0.00248885
  64         0.00000000
  65         0.00042874
  66         0.00788645
  67         0.00087105
  68         0.00009396
  69         0.00021410
  70         0.00000000
  71        -0.00087100
  72        -0.00248885
  73         0.00000000
  74         0.00042874
  75         0.00788645
  76         0.00087105
  77        -0.00009396
  78        -0.00021410
  79         0.00000000
  80         0.00087100
  81         0.00248885
  82         0.00000000
Sym=     2ag 
Ene=    -1.0363
Spin= Alpha
Occup=    2.00000
   1        -0.02317444
   2         0.60164693
   3        -0.21304635
   4        -0.01251021
   5         0.17335727
   6         0.00000000
   7         0.00000000
   8        -0.03065392
   9         0.00000000
  10         0.00000000
  11        -0.00063912
  12         0.00000000
  13         0.00000000
  14        -0.00907250
  15         0.00000000
  16         0.00000000
  17         0.01744811
  18         0.00000000
  19         0.00166260
  20         0.00000000
  21         0.00000000
  22         0.02005327
  23         0.00000000
  24        -0.02317444
  25         0.60164693
  26        -0.21304635
  27        -0.01251021
  28        -0.17335727
  29         0.00000000
  30         0.00000000
  31         0.03065392
  32         0.00000000
  33         0.00000000
  34         0.00063912
  35         0.00000000
  36         0.00000000
  37        -0.00907250
  38         0.00000000
  39         0.00000000
  40         0.01744811
  41         0.00000000
  42         0.00166260
  43         0.00000000
  44         0.00000000
  45         0.02005327
  46         0.00000000
  47         0.19557880
  48        -0.06164968
  49         0.00322127
  50         0.01152361
  51        -0.01404235
  52         0.00000000
  53         0.00659058
  54        -0.00338755
  55         0.00000000
  56         0.19557880
  57        -0.06164968
  58         0.00322127
  59        -0.01152361
  60         0.01404235
  61         0.00000000
  62        -0.00659058
  63         0.00338755
  64         0.00000000
  65         0.19557880
  66        -0.06164968
  67         0.00322127
  68        -0.01152361
  69        -0.01404235
  70         0.00000000
  71        -0.00659058
  72        -0.00338755
  73         0.00000000
  74         0.19557880
  75        -0.06164968
  76         0.00322127
  77         0.01152361
  78         0.01404235
  79         0.00000000
  80         0.00659058
  81         0.00338755
  82         0.00000000
Sym=     3ag 
Ene=    -0.5893
Spin= Alpha
Occup=    2.00000
   1        -0.00172419
   2        -0.05125354
   3        -0.08217134
   4        -0.01443300
   5        -0.60927531
   6         0.00000000
   7         0.00000000
   8         0.16706923
   9         0.00000000
  10         0.00000000
  11        -0.00751126
  12         0.00000000
  13         0.00000000
  14        -0.00225124
  15         0.00000000
  16         0.00000000
  17        -0.02392989
  18         0.00000000
  19        -0.00376577
  20         0.00000000
  21         0.00000000
  22         0.04912284
  23         0.00000000
  24        -0.00172419
  25        -0.05125354
  26        -0.08217134
  27        -0.01443300
  28         0.60927531
  29         0.00000000
  30         0.00000000
  31        -0.16706923
  32         0.00000000
  33         0.00000000
  34         0.00751126
  35         0.00000000
  36         0.00000000
  37        -0.00225124
  38         0.00000000
  39         0.00000000
  40        -0.02392989
  41         0.00000000
  42        -0.00376577
  43         0.00000000
  44         0.00000000
  45         0.04912284
  46         0.00000000
  47         0.29253869
  48        -0.02402731
  49         0.00302726
  50        -0.00266720
  51        -0.01233842
  52         0.00000000
  53         0.03195704
  54        -0.00482839
  55         0.00000000
  56         0.29253869
  57        -0.02402731
  58         0.00302726
  59         0.00266720
  60         0.01233842
  61         0.00000000
  62        -0.03195704
  63         0.00482839
  64         0.00000000
  65         0.29253869
  66        -0.02402731
  67         0.00302726
  68         0.00266720
  69        -0.01233842
  70         0.00000000
  71        -0.03195704
  72        -0.00482839
  73         0.00000000
  74         0.29253869
  75        -0.02402731
  76         0.00302726
  77        -0.00266720
  78         0.01233842
  79         0.00000000
  80         0.03195704
  81         0.00482839
  82         0.00000000
Sym=     4ag 
Ene=     0.0404
Spin= Alpha
Occup=    0.00000
   1         0.01465906
   2        -0.02840633
   3        -0.47604896
   4        -1.99694505
   5         0.07081052
   6         0.00000000
   7         0.00000000
   8         0.17526372
   9         0.00000000
  10         0.00000000
  11         0.37715051
  12         0.00000000
  13         0.00000000
  14        -0.00187428
  15         0.00000000
  16         0.00000000
  17         0.00067657
  18         0.00000000
  19         0.07798877
  20         0.00000000
  21         0.00000000
  22        -0.03629383
  23         0.00000000
  24         0.01465906
  25        -0.02840633
  26        -0.47604896
  27        -1.99694505
  28        -0.07081052
  29         0.00000000
  30         0.00000000
  31        -0.17526372
  32         0.00000000
  33         0.00000000
  34        -0.37715051
  35         0.00000000
  36         0.00000000
  37        -0.00187428
  38         0.00000000
  39         0.00000000
  40         0.00067657
  41         0.00000000
  42         0.07798877
  43         0.00000000
  44         0.00000000
  45        -0.03629383
  46         0.00000000
  47        -0.02078165
  48         0.53305225
  49         0.98660389
  50        -0.00144783
  51         0.00454576
  52         0.00000000
  53         0.05237704
  54        -0.13920597
  55         0.00000000
  56        -0.02078165
  57         0.53305225
  58         0.98660389
  59         0.00144783
  60        -0.00454576
  61         0.00000000
  62        -0.05237704
  63         0.13920597
  64         0.00000000
  65        -0.02078165
  66         0.53305225
  67         0.98660389
  68         0.00144783
  69         0.00454576
  70         0.00000000
  71        -0.05237704
  72        -0.13920597
  73         0.00000000
  74        -0.02078165
  75         0.53305225
  76         0.98660389
  77        -0.00144783
  78        -0.00454576
  79         0.00000000
  80         0.05237704
  81         0.13920597
  82         0.00000000
Sym=     5ag 
Ene=     0.1275
Spin= Alpha
Occup=    0.00000
   1         0.00615275
   2        -0.00767837
   3        -0.29084321
   4        -1.52769093
   5        -0.07571095
   6         0.00000000
   7         0.00000000
   8         0.19198554
   9         0.00000000
  10         0.00000000
  11         2.23065380
  12         0.00000000
  13         0.00000000
  14         0.01045989
  15         0.00000000
  16         0.00000000
  17        -0.00699924
  18         0.00000000
  19        -0.03101457
  20         0.00000000
  21         0.00000000
  22        -0.04113043
  23         0.00000000
  24         0.00615275
  25        -0.00767837
  26        -0.29084321
  27        -1.52769093
  28         0.07571095
  29         0.00000000
  30         0.00000000
  31        -0.19198554
  32         0.00000000
  33         0.00000000
  34        -2.23065380
  35         0.00000000
  36         0.00000000
  37         0.01045989
  38         0.00000000
  39         0.00000000
  40        -0.00699924
  41         0.00000000
  42        -0.03101457
  43         0.00000000
  44         0.00000000
  45        -0.04113043
  46         0.00000000
  47         0.02491881
  48         0.25632356
  49         0.48761589
  50         0.01318875
  51        -0.00154051
  52         0.00000000
  53        -0.14209752
  54        -0.09945925
  55         0.00000000
  56         0.02491881
  57         0.25632356
  58         0.48761589
  59        -0.01318875
  60         0.00154051
  61         0.00000000
  62         0.14209752
  63         0.09945925
  64         0.00000000
  65         0.02491881
  66         0.25632356
  67         0.48761589
  68        -0.01318875
  69        -0.00154051
  70         0.00000000
  71         0.14209752
  72        -0.09945925
  73         0.00000000
  74         0.02491881
  75         0.25632356
  76         0.48761589
  77         0.01318875
  78         0.00154051
  79         0.00000000
  80        -0.14209752
  81         0.09945925
  82         0.00000000
Sym=     6ag 
Ene=     0.1786
Spin= Alpha
Occup=    0.00000
   1         0.05109648
   2         0.32597399
   3        -1.89450435
   4        -4.80530039
   5        -0.09117327
   6         0.00000000
   7         0.00000000
   8         0.64833400
   9         0.00000000
  10         0.00000000
  11         0.67641063
  12         0.00000000
  13         0.00000000
  14        -0.02577812
  15         0.00000000
  16         0.00000000
  17         0.00621254
  18         0.00000000
  19         0.22483923
  20         0.00000000
  21         0.00000000
  22         0.15021581
  23         0.00000000
  24         0.05109648
  25         0.32597399
  26        -1.89450435
  27        -4.80530039
  28         0.09117327
  29         0.00000000
  30         0.00000000
  31        -0.64833400
  32         0.00000000
  33         0.00000000
  34        -0.67641063
  35         0.00000000
  36         0.00000000
  37        -0.02577812
  38         0.00000000
  39         0.00000000
  40         0.00621254
  41         0.00000000
  42         0.22483923
  43         0.00000000
  44         0.00000000
  45         0.15021581
  46         0.00000000
  47         0.07266009
  48         2.17971384
  49         1.27615783
  50         0.00429603
  51        -0.01450680
  52         0.00000000
  53         0.33653735
  54        -0.42471780
  55         0.00000000
  56         0.07266009
  57         2.17971384
  58         1.27615783
  59        -0.00429603
  60         0.01450680
  61         0.00000000
  62        -0.33653735
  63         0.42471780
  64         0.00000000
  65         0.07266009
  66         2.17971384
  67         1.27615783
  68        -0.00429603
  69        -0.01450680
  70         0.00000000
  71        -0.33653735
  72        -0.42471780
  73         0.00000000
  74         0.07266009
  75         2.17971384
  76         1.27615783
  77         0.00429603
  78         0.01450680
  79         0.00000000
  80         0.33653735
  81         0.42471780
  82         0.00000000
Sym=     7ag 
Ene=     0.2519
Spin= Alpha
Occup=    0.00000
   1        -0.00394370
   2        -0.17872069
   3        -1.09907505
   4        -0.33998627
   5         0.13455164
   6         0.00000000
   7         0.00000000
   8         0.09871435
   9         0.00000000
  10         0.00000000
  11        -0.52886869
  12         0.00000000
  13         0.00000000
  14        -0.02328558
  15         0.00000000
  16         0.00000000
  17        -0.03769280
  18         0.00000000
  19        -0.07246160
  20         0.00000000
  21         0.00000000
  22         0.71892364
  23         0.00000000
  24        -0.00394370
  25        -0.17872069
  26        -1.09907505
  27        -0.33998627
  28        -0.13455164
  29         0.00000000
  30         0.00000000
  31        -0.09871435
  32         0.00000000
  33         0.00000000
  34         0.52886869
  35         0.00000000
  36         0.00000000
  37        -0.02328558
  38         0.00000000
  39         0.00000000
  40        -0.03769280
  41         0.00000000
  42        -0.07246160
  43         0.00000000
  44         0.00000000
  45         0.71892364
  46         0.00000000
  47         0.13297883
  48         1.11563732
  49        -0.16874467
  50         0.00616127
  51         0.00319542
  52         0.00000000
  53         0.50357625
  54         0.45861872
  55         0.00000000
  56         0.13297883
  57         1.11563732
  58        -0.16874467
  59        -0.00616127
  60        -0.00319542
  61         0.00000000
  62        -0.50357625
  63        -0.45861872
  64         0.00000000
  65         0.13297883
  66         1.11563732
  67        -0.16874467
  68        -0.00616127
  69         0.00319542
  70         0.00000000
  71        -0.50357625
  72         0.45861872
  73         0.00000000
  74         0.13297883
  75         1.11563732
  76        -0.16874467
  77         0.00616127
  78        -0.00319542
  79         0.00000000
  80         0.50357625
  81        -0.45861872
  82         0.00000000
Sym=     8ag 
Ene=     0.4069
Spin= Alpha
Occup=    0.00000
   1        -0.00731859
   2        -0.01064640
   3        -0.10869470
   4         1.00575508
   5        -0.25593258
   6         0.00000000
   7         0.00000000
   8        -0.65925006
   9         0.00000000
  10         0.00000000
  11        -1.69652655
  12         0.00000000
  13         0.00000000
  14        -0.01021542
  15         0.00000000
  16         0.00000000
  17        -0.05117790
  18         0.00000000
  19         0.14699567
  20         0.00000000
  21         0.00000000
  22         0.33639596
  23         0.00000000
  24        -0.00731859
  25        -0.01064640
  26        -0.10869470
  27         1.00575508
  28         0.25593258
  29         0.00000000
  30         0.00000000
  31         0.65925006
  32         0.00000000
  33         0.00000000
  34         1.69652655
  35         0.00000000
  36         0.00000000
  37        -0.01021542
  38         0.00000000
  39         0.00000000
  40        -0.05117790
  41         0.00000000
  42         0.14699567
  43         0.00000000
  44         0.00000000
  45         0.33639596
  46         0.00000000
  47         0.00533239
  48        -0.24175736
  49        -0.24545475
  50        -0.01459683
  51         0.01330162
  52         0.00000000
  53         0.96920996
  54         0.22694451
  55         0.00000000
  56         0.00533239
  57        -0.24175736
  58        -0.24545475
  59         0.01459683
  60        -0.01330162
  61         0.00000000
  62        -0.96920996
  63        -0.22694451
  64         0.00000000
  65         0.00533239
  66        -0.24175736
  67        -0.24545475
  68         0.01459683
  69         0.01330162
  70         0.00000000
  71        -0.96920996
  72         0.22694451
  73         0.00000000
  74         0.00533239
  75        -0.24175736
  76        -0.24545475
  77        -0.01459683
  78        -0.01330162
  79         0.00000000
  80         0.96920996
  81        -0.22694451
  82         0.00000000
Sym=     9ag 
Ene=     0.5325
Spin= Alpha
Occup=    0.00000
   1         0.10863488
   2         0.11107304
   3        -5.44238289
   4        -4.78579942
   5         0.01850136
   6         0.00000000
   7         0.00000000
   8         1.63430014
   9         0.00000000
  10         0.00000000
  11         0.61145536
  12         0.00000000
  13         0.00000000
  14         0.01483929
  15         0.00000000
  16         0.00000000
  17         0.00368820
  18         0.00000000
  19         0.77820565
  20         0.00000000
  21         0.00000000
  22         0.33852691
  23         0.00000000
  24         0.10863488
  25         0.11107304
  26        -5.44238289
  27        -4.78579942
  28        -0.01850136
  29         0.00000000
  30         0.00000000
  31        -1.63430014
  32         0.00000000
  33         0.00000000
  34        -0.61145536
  35         0.00000000
  36         0.00000000
  37         0.01483929
  38         0.00000000
  39         0.00000000
  40         0.00368820
  41         0.00000000
  42         0.77820565
  43         0.00000000
  44         0.00000000
  45         0.33852691
  46         0.00000000
  47        -0.09976352
  48         4.73599485
  49         0.91611385
  50         0.00314307
  51        -0.00982999
  52         0.00000000
  53         0.64408769
  54        -0.96740864
  55         0.00000000
  56        -0.09976352
  57         4.73599485
  58         0.91611385
  59        -0.00314307
  60         0.00982999
  61         0.00000000
  62        -0.64408769
  63         0.96740864
  64         0.00000000
  65        -0.09976352
  66         4.73599485
  67         0.91611385
  68        -0.00314307
  69        -0.00982999
  70         0.00000000
  71        -0.64408769
  72        -0.96740864
  73         0.00000000
  74        -0.09976352
  75         4.73599485
  76         0.91611385
  77         0.00314307
  78         0.00982999
  79         0.00000000
  80         0.64408769
  81         0.96740864
  82         0.00000000
Sym=    10ag 
Ene=     0.6008
Spin= Alpha
Occup=    0.00000
   1         0.07139507
   2         0.17535620
   3        -7.09571279
   4        -0.63861009
   5         0.07789230
   6         0.00000000
   7         0.00000000
   8         1.30866181
   9         0.00000000
  10         0.00000000
  11         0.25214552
  12         0.00000000
  13         0.00000000
  14         0.01902408
  15         0.00000000
  16         0.00000000
  17        -0.00396556
  18         0.00000000
  19        -0.62403001
  20         0.00000000
  21         0.00000000
  22         1.18746700
  23         0.00000000
  24         0.07139507
  25         0.17535620
  26        -7.09571279
  27        -0.63861009
  28        -0.07789230
  29         0.00000000
  30         0.00000000
  31        -1.30866181
  32         0.00000000
  33         0.00000000
  34        -0.25214552
  35         0.00000000
  36         0.00000000
  37         0.01902408
  38         0.00000000
  39         0.00000000
  40        -0.00396556
  41         0.00000000
  42        -0.62403001
  43         0.00000000
  44         0.00000000
  45         1.18746700
  46         0.00000000
  47         0.01995076
  48         3.06610576
  49         0.16115370
  50         0.00891664
  51         0.00436541
  52         0.00000000
  53         1.30090252
  54        -1.23146362
  55         0.00000000
  56         0.01995076
  57         3.06610576
  58         0.16115370
  59        -0.00891664
  60        -0.00436541
  61         0.00000000
  62        -1.30090252
  63         1.23146362
  64         0.00000000
  65         0.01995076
  66         3.06610576
  67         0.16115370
  68        -0.00891664
  69         0.00436541
  70         0.00000000
  71        -1.30090252
  72        -1.23146362
  73         0.00000000
  74         0.01995076
  75         3.06610576
  76         0.16115370
  77         0.00891664
  78        -0.00436541
  79         0.00000000
  80         1.30090252
  81         1.23146362
  82         0.00000000
Sym=    11ag 
Ene=     0.6407
Spin= Alpha
Occup=    0.00000
   1        -0.03922399
   2         0.13831045
   3        -1.71497464
   4         0.65681293
   5        -0.17348573
   6         0.00000000
   7         0.00000000
   8        -0.51806768
   9         0.00000000
  10         0.00000000
  11        -0.68313416
  12         0.00000000
  13         0.00000000
  14         0.02262295
  15         0.00000000
  16         0.00000000
  17         0.00060405
  18         0.00000000
  19        -0.12708287
  20         0.00000000
  21         0.00000000
  22         2.65369494
  23         0.00000000
  24        -0.03922399
  25         0.13831045
  26        -1.71497464
  27         0.65681293
  28         0.17348573
  29         0.00000000
  30         0.00000000
  31         0.51806768
  32         0.00000000
  33         0.00000000
  34         0.68313416
  35         0.00000000
  36         0.00000000
  37         0.02262295
  38         0.00000000
  39         0.00000000
  40         0.00060405
  41         0.00000000
  42        -0.12708287
  43         0.00000000
  44         0.00000000
  45         2.65369494
  46         0.00000000
  47        -0.25271237
  48         0.96602890
  49        -0.31331850
  50         0.00652617
  51        -0.02836453
  52         0.00000000
  53         1.37027358
  54         1.07930244
  55         0.00000000
  56        -0.25271237
  57         0.96602890
  58        -0.31331850
  59        -0.00652617
  60         0.02836453
  61         0.00000000
  62        -1.37027358
  63        -1.07930244
  64         0.00000000
  65        -0.25271237
  66         0.96602890
  67        -0.31331850
  68        -0.00652617
  69        -0.02836453
  70         0.00000000
  71        -1.37027358
  72         1.07930244
  73         0.00000000
  74        -0.25271237
  75         0.96602890
  76        -0.31331850
  77         0.00652617
  78         0.02836453
  79         0.00000000
  80         1.37027358
  81        -1.07930244
  82         0.00000000
Sym=    12ag 
Ene=     0.9939
Spin= Alpha
Occup=    0.00000
   1         0.00841890
   2        -0.13081731
   3         1.49622033
   4         0.50677556
   5         0.84572797
   6         0.00000000
   7         0.00000000
   8        -2.62674264
   9         0.00000000
  10         0.00000000
  11        -0.83481420
  12         0.00000000
  13         0.00000000
  14        -0.15655325
  15         0.00000000
  16         0.00000000
  17        -0.03606996
  18         0.00000000
  19         0.34804803
  20         0.00000000
  21         0.00000000
  22         0.53655331
  23         0.00000000
  24         0.00841890
  25        -0.13081731
  26         1.49622033
  27         0.50677556
  28        -0.84572797
  29         0.00000000
  30         0.00000000
  31         2.62674264
  32         0.00000000
  33         0.00000000
  34         0.83481420
  35         0.00000000
  36         0.00000000
  37        -0.15655325
  38         0.00000000
  39         0.00000000
  40        -0.03606996
  41         0.00000000
  42         0.34804803
  43         0.00000000
  44         0.00000000
  45         0.53655331
  46         0.00000000
  47         0.43740467
  48        -1.10023313
  49        -0.09621520
  50        -0.08344144
  51         0.12931535
  52         0.00000000
  53         0.80603517
  54         0.55587314
  55         0.00000000
  56         0.43740467
  57        -1.10023313
  58        -0.09621520
  59         0.08344144
  60        -0.12931535
  61         0.00000000
  62        -0.80603517
  63        -0.55587314
  64         0.00000000
  65         0.43740467
  66        -1.10023313
  67        -0.09621520
  68         0.08344144
  69         0.12931535
  70         0.00000000
  71        -0.80603517
  72         0.55587314
  73         0.00000000
  74         0.43740467
  75        -1.10023313
  76        -0.09621520
  77        -0.08344144
  78        -0.12931535
  79         0.00000000
  80         0.80603517
  81        -0.55587314
  82         0.00000000
Sym=    13ag 
Ene=     1.4512
Spin= Alpha
Occup=    0.00000
   1        -0.16483289
   2        -0.72787558
   3        -5.95625589
   4        -0.19168020
   5        -0.46383921
   6         0.00000000
   7         0.00000000
   8         2.78033393
   9         0.00000000
  10         0.00000000
  11        -0.11888840
  12         0.00000000
  13         0.00000000
  14        -0.06778359
  15         0.00000000
  16         0.00000000
  17        -0.31756291
  18         0.00000000
  19        -0.23908139
  20         0.00000000
  21         0.00000000
  22         3.47225903
  23         0.00000000
  24        -0.16483289
  25        -0.72787558
  26        -5.95625589
  27        -0.19168020
  28         0.46383921
  29         0.00000000
  30         0.00000000
  31        -2.78033393
  32         0.00000000
  33         0.00000000
  34         0.11888840
  35         0.00000000
  36         0.00000000
  37        -0.06778359
  38         0.00000000
  39         0.00000000
  40        -0.31756291
  41         0.00000000
  42        -0.23908139
  43         0.00000000
  44         0.00000000
  45         3.47225903
  46         0.00000000
  47         1.25028536
  48         2.10790740
  49        -0.05666751
  50        -0.00281271
  51         0.08812228
  52         0.00000000
  53         1.40065130
  54         0.14672494
  55         0.00000000
  56         1.25028536
  57         2.10790740
  58        -0.05666751
  59         0.00281271