[Molden Format]
[N_Atoms]
                   10
[Atoms] (AU)
C1          1      6           2.29936383     -1.36449695      0.00000000
C1          2      6          -2.29936383     -1.36449695      0.00000000
C1          3      6           2.29936383      1.36449695      0.00000000
C1          4      6          -2.29936383      1.36449695      0.00000000
C2          5      6           0.00000000     -2.57818231      0.00000000
C2          6      6           0.00000000      2.57818231      0.00000000
H3          7      1           4.07098839      2.35372214      0.00000000
H3          8      1          -4.07098839      2.35372214      0.00000000
H3          9      1           4.07098839     -2.35372214      0.00000000
H3         10      1          -4.07098839     -2.35372214      0.00000000
[Charge] (Mulliken)
 -0.89585496974468626     
 -0.89585496974468626     
 -0.89585496974468626     
 -0.89585496974468626     
   4.8382500802265582E-002
   4.8382500802265582E-002
  0.84747246894218442     
  0.84747246894218442     
  0.84747246894218442     
  0.84747246894218442     
[GTO] (AU)
   1
   s   6
  3.047524880E+03  1.834737132E-03
  4.573695180E+02  1.403732281E-02
  1.039486850E+02  6.884262227E-02
  2.921015530E+01  2.321844432E-01
  9.286662960E+00  4.679413484E-01
  3.163926960E+00  3.623119853E-01
   s   3
  7.868272350E+00 -1.193324198E-01
  1.881288540E+00 -1.608541517E-01
  5.442492580E-01  1.143456438E+00
   s   1
  1.687144782E-01  1.000000000E+00
   p   3
  7.868272350E+00  6.899906659E-02
  1.881288540E+00  3.164239610E-01
  5.442492580E-01  7.443082909E-01
   p   1
  1.687144782E-01  1.000000000E+00
   d   1
  8.000000000E-01  1.000000000E+00
 
   2
   s   6
  3.047524880E+03  1.834737132E-03
  4.573695180E+02  1.403732281E-02
  1.039486850E+02  6.884262227E-02
  2.921015530E+01  2.321844432E-01
  9.286662960E+00  4.679413484E-01
  3.163926960E+00  3.623119853E-01
   s   3
  7.868272350E+00 -1.193324198E-01
  1.881288540E+00 -1.608541517E-01
  5.442492580E-01  1.143456438E+00
   s   1
  1.687144782E-01  1.000000000E+00
   p   3
  7.868272350E+00  6.899906659E-02
  1.881288540E+00  3.164239610E-01
  5.442492580E-01  7.443082909E-01
   p   1
  1.687144782E-01  1.000000000E+00
   d   1
  8.000000000E-01  1.000000000E+00
 
   3
   s   6
  3.047524880E+03  1.834737132E-03
  4.573695180E+02  1.403732281E-02
  1.039486850E+02  6.884262227E-02
  2.921015530E+01  2.321844432E-01
  9.286662960E+00  4.679413484E-01
  3.163926960E+00  3.623119853E-01
   s   3
  7.868272350E+00 -1.193324198E-01
  1.881288540E+00 -1.608541517E-01
  5.442492580E-01  1.143456438E+00
   s   1
  1.687144782E-01  1.000000000E+00
   p   3
  7.868272350E+00  6.899906659E-02
  1.881288540E+00  3.164239610E-01
  5.442492580E-01  7.443082909E-01
   p   1
  1.687144782E-01  1.000000000E+00
   d   1
  8.000000000E-01  1.000000000E+00
 
   4
   s   6
  3.047524880E+03  1.834737132E-03
  4.573695180E+02  1.403732281E-02
  1.039486850E+02  6.884262227E-02
  2.921015530E+01  2.321844432E-01
  9.286662960E+00  4.679413484E-01
  3.163926960E+00  3.623119853E-01
   s   3
  7.868272350E+00 -1.193324198E-01
  1.881288540E+00 -1.608541517E-01
  5.442492580E-01  1.143456438E+00
   s   1
  1.687144782E-01  1.000000000E+00
   p   3
  7.868272350E+00  6.899906659E-02
  1.881288540E+00  3.164239610E-01
  5.442492580E-01  7.443082909E-01
   p   1
  1.687144782E-01  1.000000000E+00
   d   1
  8.000000000E-01  1.000000000E+00
 
   5
   s   6
  3.047524880E+03  1.834737132E-03
  4.573695180E+02  1.403732281E-02
  1.039486850E+02  6.884262227E-02
  2.921015530E+01  2.321844432E-01
  9.286662960E+00  4.679413484E-01
  3.163926960E+00  3.623119853E-01
   s   3
  7.868272350E+00 -1.193324198E-01
  1.881288540E+00 -1.608541517E-01
  5.442492580E-01  1.143456438E+00
   s   1
  1.687144782E-01  1.000000000E+00
   p   3
  7.868272350E+00  6.899906659E-02
  1.881288540E+00  3.164239610E-01
  5.442492580E-01  7.443082909E-01
   p   1
  1.687144782E-01  1.000000000E+00
   d   1
  8.000000000E-01  1.000000000E+00
 
   6
   s   6
  3.047524880E+03  1.834737132E-03
  4.573695180E+02  1.403732281E-02
  1.039486850E+02  6.884262227E-02
  2.921015530E+01  2.321844432E-01
  9.286662960E+00  4.679413484E-01
  3.163926960E+00  3.623119853E-01
   s   3
  7.868272350E+00 -1.193324198E-01
  1.881288540E+00 -1.608541517E-01
  5.442492580E-01  1.143456438E+00
   s   1
  1.687144782E-01  1.000000000E+00
   p   3
  7.868272350E+00  6.899906659E-02
  1.881288540E+00  3.164239610E-01
  5.442492580E-01  7.443082909E-01
   p   1
  1.687144782E-01  1.000000000E+00
   d   1
  8.000000000E-01  1.000000000E+00
 
   7
   s   3
  1.873113696E+01  3.349460434E-02
  2.825394365E+00  2.347269535E-01
  6.401216923E-01  8.137573261E-01
   s   1
  1.612777588E-01  1.000000000E+00
 
   8
   s   3
  1.873113696E+01  3.349460434E-02
  2.825394365E+00  2.347269535E-01
  6.401216923E-01  8.137573261E-01
   s   1
  1.612777588E-01  1.000000000E+00
 
   9
   s   3
  1.873113696E+01  3.349460434E-02
  2.825394365E+00  2.347269535E-01
  6.401216923E-01  8.137573261E-01
   s   1
  1.612777588E-01  1.000000000E+00
 
  10
   s   3
  1.873113696E+01  3.349460434E-02
  2.825394365E+00  2.347269535E-01
  6.401216923E-01  8.137573261E-01
   s   1
  1.612777588E-01  1.000000000E+00
 
[MO]
Sym=     1ag 
Ene=   -11.2370
Spin= Alpha
Occup=    2.00000
   1         0.32523915
   2         0.00895887
   3        -0.00049724
   4         0.00008648
   5         0.00019167
   6         0.00000000
   7        -0.00107350
   8         0.00031010
   9         0.00000000
  10        -0.00077357
  11        -0.00093033
  12        -0.00095173
  13        -0.00008916
  14         0.00000000
  15         0.00000000
  16         0.32523915
  17         0.00895887
  18        -0.00049724
  19        -0.00008648
  20         0.00019167
  21         0.00000000
  22         0.00107350
  23         0.00031010
  24         0.00000000
  25        -0.00077357
  26        -0.00093033
  27        -0.00095173
  28         0.00008916
  29         0.00000000
  30         0.00000000
  31         0.32523915
  32         0.00895887
  33        -0.00049724
  34         0.00008648
  35        -0.00019167
  36         0.00000000
  37        -0.00107350
  38        -0.00031010
  39         0.00000000
  40        -0.00077357
  41        -0.00093033
  42        -0.00095173
  43         0.00008916
  44         0.00000000
  45         0.00000000
  46         0.32523915
  47         0.00895887
  48        -0.00049724
  49        -0.00008648
  50        -0.00019167
  51         0.00000000
  52         0.00107350
  53        -0.00031010
  54         0.00000000
  55        -0.00077357
  56        -0.00093033
  57        -0.00095173
  58        -0.00008916
  59         0.00000000
  60         0.00000000
  61         0.53254546
  62         0.01440913
  63        -0.00500104
  64         0.00000000
  65         0.00052358
  66         0.00000000
  67         0.00000000
  68        -0.00112711
  69         0.00000000
  70        -0.00095909
  71        -0.00139426
  72        -0.00134361
  73         0.00000000
  74         0.00000000
  75         0.00000000
  76         0.53254546
  77         0.01440913
  78        -0.00500104
  79         0.00000000
  80        -0.00052358
  81         0.00000000
  82         0.00000000
  83         0.00112711
  84         0.00000000
  85        -0.00095909
  86        -0.00139426
  87        -0.00134361
  88         0.00000000
  89         0.00000000
  90         0.00000000
  91        -0.00010311
  92         0.00094617
  93        -0.00010311
  94         0.00094617
  95        -0.00010311
  96         0.00094617
  97        -0.00010311
  98         0.00094617
Sym=     2ag 
Ene=   -11.2350
Spin= Alpha
Occup=    2.00000
   1         0.37678004
   2         0.01044520
   3        -0.00564266
   4        -0.00017211
   5        -0.00046722
   6         0.00000000
   7         0.00148045
   8         0.00020983
   9         0.00000000
  10        -0.00053583
  11        -0.00076934
  12        -0.00088906
  13         0.00014675
  14         0.00000000
  15         0.00000000
  16         0.37678004
  17         0.01044520
  18        -0.00564266
  19         0.00017211
  20        -0.00046722
  21         0.00000000
  22        -0.00148045
  23         0.00020983
  24         0.00000000
  25        -0.00053583
  26        -0.00076934
  27        -0.00088906
  28        -0.00014675
  29         0.00000000
  30         0.00000000
  31         0.37678004
  32         0.01044520
  33        -0.00564266
  34        -0.00017211
  35         0.00046722
  36         0.00000000
  37         0.00148045
  38        -0.00020983
  39         0.00000000
  40        -0.00053583
  41        -0.00076934
  42        -0.00088906
  43        -0.00014675
  44         0.00000000
  45         0.00000000
  46         0.37678004
  47         0.01044520
  48        -0.00564266
  49         0.00017211
  50         0.00046722
  51         0.00000000
  52        -0.00148045
  53        -0.00020983
  54         0.00000000
  55        -0.00053583
  56        -0.00076934
  57        -0.00088906
  58         0.00014675
  59         0.00000000
  60         0.00000000
  61        -0.46072268
  62        -0.01274613
  63         0.00945084
  64         0.00000000
  65        -0.00070487
  66         0.00000000
  67         0.00000000
  68         0.00216475
  69         0.00000000
  70         0.00031014
  71         0.00089982
  72         0.00098882
  73         0.00000000
  74         0.00000000
  75         0.00000000
  76        -0.46072268
  77        -0.01274613
  78         0.00945084
  79         0.00000000
  80         0.00070487
  81         0.00000000
  82         0.00000000
  83        -0.00216475
  84         0.00000000
  85         0.00031014
  86         0.00089982
  87         0.00098882
  88         0.00000000
  89         0.00000000
  90         0.00000000
  91        -0.00006131
  92         0.00049294
  93        -0.00006131
  94         0.00049294
  95        -0.00006131
  96         0.00049294
  97        -0.00006131
  98         0.00049294
Sym=     3ag 
Ene=    -1.0897
Spin= Alpha
Occup=    2.00000
   1        -0.07539907
   2         0.14147090
   3         0.08507922
   4        -0.07311451
   5        -0.05849133
   6         0.00000000
   7        -0.00929450
   8        -0.02845404
   9         0.00000000
  10         0.01103778
  11         0.00215560
  12        -0.00703377
  13         0.00217734
  14         0.00000000
  15         0.00000000
  16        -0.07539907
  17         0.14147090
  18         0.08507922
  19         0.07311451
  20        -0.05849133
  21         0.00000000
  22         0.00929450
  23        -0.02845404
  24         0.00000000
  25         0.01103778
  26         0.00215560
  27        -0.00703377
  28        -0.00217734
  29         0.00000000
  30         0.00000000
  31        -0.07539907
  32         0.14147090
  33         0.08507922
  34        -0.07311451
  35         0.05849133
  36         0.00000000
  37        -0.00929450
  38         0.02845404
  39         0.00000000
  40         0.01103778
  41         0.00215560
  42        -0.00703377
  43        -0.00217734
  44         0.00000000
  45         0.00000000
  46        -0.07539907
  47         0.14147090
  48         0.08507922
  49         0.07311451
  50         0.05849133
  51         0.00000000
  52         0.00929450
  53         0.02845404
  54         0.00000000
  55         0.01103778
  56         0.00215560
  57        -0.00703377
  58         0.00217734
  59         0.00000000
  60         0.00000000
  61        -0.11565537
  62         0.22499364
  63         0.15234450
  64         0.00000000
  65         0.07198807
  66         0.00000000
  67         0.00000000
  68         0.01799912
  69         0.00000000
  70         0.01344397
  71        -0.00301451
  72        -0.00888983
  73         0.00000000
  74         0.00000000
  75         0.00000000
  76        -0.11565537
  77         0.22499364
  78         0.15234450
  79         0.00000000
  80        -0.07198807
  81         0.00000000
  82         0.00000000
  83        -0.01799912
  84         0.00000000
  85         0.01344397
  86        -0.00301451
  87        -0.00888983
  88         0.00000000
  89         0.00000000
  90         0.00000000
  91         0.04049028
  92         0.01376386
  93         0.04049028
  94         0.01376386
  95         0.04049028
  96         0.01376386
  97         0.04049028
  98         0.01376386
Sym=     4ag 
Ene=    -0.7417
Spin= Alpha
Occup=    2.00000
   1        -0.03956117
   2         0.07630646
   3         0.08309985
   4         0.19373321
   5        -0.05004566
   6         0.00000000
   7         0.07585108
   8        -0.03416940
   9         0.00000000
  10         0.00527743
  11         0.00406827
  12        -0.00294664
  13        -0.00729386
  14         0.00000000
  15         0.00000000
  16        -0.03956117
  17         0.07630646
  18         0.08309985
  19        -0.19373321
  20        -0.05004566
  21         0.00000000
  22        -0.07585108
  23        -0.03416940
  24         0.00000000
  25         0.00527743
  26         0.00406827
  27        -0.00294664
  28         0.00729386
  29         0.00000000
  30         0.00000000
  31        -0.03956117
  32         0.07630646
  33         0.08309985
  34         0.19373321
  35         0.05004566
  36         0.00000000
  37         0.07585108
  38         0.03416940
  39         0.00000000
  40         0.00527743
  41         0.00406827
  42        -0.00294664
  43         0.00729386
  44         0.00000000
  45         0.00000000
  46        -0.03956117
  47         0.07630646
  48         0.08309985
  49        -0.19373321
  50         0.05004566
  51         0.00000000
  52        -0.07585108
  53         0.03416940
  54         0.00000000
  55         0.00527743
  56         0.00406827
  57        -0.00294664
  58        -0.00729386
  59         0.00000000
  60         0.00000000
  61         0.04355780
  62        -0.08750571
  63        -0.05391997
  64         0.00000000
  65        -0.07537385
  66         0.00000000
  67         0.00000000
  68        -0.01037813
  69         0.00000000
  70         0.00312804
  71        -0.00632682
  72         0.00340551
  73         0.00000000
  74         0.00000000
  75         0.00000000
  76         0.04355780
  77        -0.08750571
  78        -0.05391997
  79         0.00000000
  80         0.07537385
  81         0.00000000
  82         0.00000000
  83         0.01037813
  84         0.00000000
  85         0.00312804
  86        -0.00632682
  87         0.00340551
  88         0.00000000
  89         0.00000000
  90         0.00000000
  91         0.13973837
  92         0.07530211
  93         0.13973837
  94         0.07530211
  95         0.13973837
  96         0.07530211
  97         0.13973837
  98         0.07530211
Sym=     5ag 
Ene=    -0.7143
Spin= Alpha
Occup=    1.97704
   1         0.05886582
   2        -0.12139338
   3        -0.08420477
   4        -0.00861936
   5        -0.26034310
   6         0.00000000
   7         0.00231101
   8        -0.09300565
   9         0.00000000
  10         0.00965998
  11        -0.01263788
  12         0.00425621
  13         0.00317725
  14         0.00000000
  15         0.00000000
  16         0.05886582
  17        -0.12139338
  18        -0.08420477
  19         0.00861936
  20        -0.26034310
  21         0.00000000
  22        -0.00231101
  23        -0.09300565
  24         0.00000000
  25         0.00965998
  26        -0.01263788
  27         0.00425621
  28        -0.00317725
  29         0.00000000
  30         0.00000000
  31         0.05886582
  32        -0.12139338
  33        -0.08420477
  34        -0.00861936
  35         0.26034310
  36         0.00000000
  37         0.00231101
  38         0.09300565
  39         0.00000000
  40         0.00965998
  41        -0.01263788
  42         0.00425621
  43        -0.00317725
  44         0.00000000
  45         0.00000000
  46         0.05886582
  47        -0.12139338
  48        -0.08420477
  49         0.00861936
  50         0.26034310
  51         0.00000000
  52        -0.00231101
  53         0.09300565
  54         0.00000000
  55         0.00965998
  56        -0.01263788
  57         0.00425621
  58         0.00317725
  59         0.00000000
  60         0.00000000
  61        -0.05028452
  62         0.10989862
  63         0.11889099
  64         0.00000000
  65        -0.05617955
  66         0.00000000
  67         0.00000000
  68        -0.01270676
  69         0.00000000
  70         0.00836462
  71        -0.01116768
  72        -0.00052910
  73         0.00000000
  74         0.00000000
  75         0.00000000
  76        -0.05028452
  77         0.10989862
  78         0.11889099
  79         0.00000000
  80         0.05617955
  81         0.00000000
  82         0.00000000
  83         0.01270676
  84         0.00000000
  85         0.00836462
  86        -0.01116768
  87        -0.00052910
  88         0.00000000
  89         0.00000000
  90         0.00000000
  91         0.02746938
  92         0.03723023
  93         0.02746938
  94         0.03723023
  95         0.02746938
  96         0.03723023
  97         0.02746938
  98         0.03723023
Sym=     6ag 
Ene=    -0.0035
Spin= Alpha
Occup=    0.69592
   1        -0.00267749
   2         0.00537532
   3        -0.01191197
   4        -0.04560356
   5        -0.13948266
   6         0.00000000
   7         0.01110689
   8        -0.10050851
   9         0.00000000
  10         0.01670923
  11        -0.01209107
  12        -0.00144849
  13        -0.00931561
  14         0.00000000
  15         0.00000000
  16        -0.00267749
  17         0.00537532
  18        -0.01191197
  19         0.04560356
  20        -0.13948266
  21         0.00000000
  22        -0.01110689
  23        -0.10050851
  24         0.00000000
  25         0.01670923
  26        -0.01209107
  27        -0.00144849
  28         0.00931561
  29         0.00000000
  30         0.00000000
  31        -0.00267749
  32         0.00537532
  33        -0.01191197
  34        -0.04560356
  35         0.13948266
  36         0.00000000
  37         0.01110689
  38         0.10050851
  39         0.00000000
  40         0.01670923
  41        -0.01209107
  42        -0.00144849
  43         0.00931561
  44         0.00000000
  45         0.00000000
  46        -0.00267749
  47         0.00537532
  48        -0.01191197
  49         0.04560356
  50         0.13948266
  51         0.00000000
  52        -0.01110689
  53         0.10050851
  54         0.00000000
  55         0.01670923
  56        -0.01209107
  57        -0.00144849
  58        -0.00931561
  59         0.00000000
  60         0.00000000
  61         0.05834775
  62        -0.13163481
  63        -0.23323403
  64         0.00000000
  65         0.40328400
  66         0.00000000
  67         0.00000000
  68         0.30930763
  69         0.00000000
  70         0.01858758
  71        -0.01399483
  72         0.00019745
  73         0.00000000
  74         0.00000000
  75         0.00000000
  76         0.05834775
  77        -0.13163481
  78        -0.23323403
  79         0.00000000
  80        -0.40328400
  81         0.00000000
  82         0.00000000
  83        -0.30930763
  84         0.00000000
  85         0.01858758
  86        -0.01399483
  87         0.00019745
  88         0.00000000
  89         0.00000000
  90         0.00000000
  91         0.04968821
  92         0.04914237
  93         0.04968821
  94         0.04914237
  95         0.04968821
  96         0.04914237
  97         0.04968821
  98         0.04914237
Sym=     7ag 
Ene=     0.2642
Spin= Alpha
Occup=    0.00000
   1         0.05127948
   2        -0.07679439
   3        -0.75526134
   4        -0.08193476
   5         0.09464671
   6         0.00000000
   7        -0.42071681
   8         0.36176815
   9         0.00000000
  10         0.00978652
  11        -0.00481915
  12        -0.00068247
  13        -0.00558761
  14         0.00000000
  15         0.00000000
  16         0.05127948
  17        -0.07679439
  18        -0.75526134
  19         0.08193476
  20         0.09464671
  21         0.00000000
  22         0.42071681
  23         0.36176815
  24         0.00000000
  25         0.00978652
  26        -0.00481915
  27        -0.00068247
  28         0.00558761
  29         0.00000000
  30         0.00000000
  31         0.05127948
  32        -0.07679439
  33        -0.75526134
  34        -0.08193476
  35        -0.09464671
  36         0.00000000
  37        -0.42071681
  38        -0.36176815
  39         0.00000000
  40         0.00978652
  41        -0.00481915
  42        -0.00068247
  43         0.00558761
  44         0.00000000
  45         0.00000000
  46         0.05127948
  47        -0.07679439
  48        -0.75526134
  49         0.08193476
  50        -0.09464671
  51         0.00000000
  52         0.42071681
  53        -0.36176815
  54         0.00000000
  55         0.00978652
  56        -0.00481915
  57        -0.00068247
  58        -0.00558761
  59         0.00000000
  60         0.00000000
  61        -0.00854092
  62         0.01271000
  63         0.03433212
  64         0.00000000
  65         0.02207301
  66         0.00000000
  67         0.00000000
  68        -0.28300179
  69         0.00000000
  70        -0.01944353
  71         0.01223050
  72         0.00181474
  73         0.00000000
  74         0.00000000
  75         0.00000000
  76        -0.00854092
  77         0.01271000
  78         0.03433212
  79         0.00000000
  80        -0.02207301
  81         0.00000000
  82         0.00000000
  83         0.28300179
  84         0.00000000
  85        -0.01944353
  86         0.01223050
  87         0.00181474
  88         0.00000000
  89         0.00000000
  90         0.00000000
  91         0.01653982
  92         1.07926459
  93         0.01653982
  94         1.07926459
  95         0.01653982
  96         1.07926459
  97         0.01653982
  98         1.07926459
Sym=     8ag 
Ene=     0.4313
Spin= Alpha
Occup=    0.00000
   1         0.04434120
   2        -0.00986525
   3        -1.24685307
   4         0.05734582
   5        -0.02345612
   6         0.00000000
   7         1.08616326
   8         0.36192039
   9         0.00000000
  10         0.01034120
  11        -0.01729606
  12         0.00499178
  13         0.01409578
  14         0.00000000
  15         0.00000000
  16         0.04434120
  17        -0.00986525
  18        -1.24685307
  19        -0.05734582
  20        -0.02345612
  21         0.00000000
  22        -1.08616326
  23         0.36192039
  24         0.00000000
  25         0.01034120
  26        -0.01729606
  27         0.00499178
  28        -0.01409578
  29         0.00000000
  30         0.00000000
  31         0.04434120
  32        -0.00986525
  33        -1.24685307
  34         0.05734582
  35         0.02345612
  36         0.00000000
  37         1.08616326
  38        -0.36192039
  39         0.00000000
  40         0.01034120
  41        -0.01729606
  42         0.00499178
  43        -0.01409578
  44         0.00000000
  45         0.00000000
  46         0.04434120
  47        -0.00986525
  48        -1.24685307
  49        -0.05734582
  50         0.02345612
  51         0.00000000
  52        -1.08616326
  53        -0.36192039
  54         0.00000000
  55         0.01034120
  56        -0.01729606
  57         0.00499178
  58         0.01409578
  59         0.00000000
  60         0.00000000
  61        -0.10597016
  62         0.10794793
  63         2.89297524
  64         0.00000000
  65         0.04856918
  66         0.00000000
  67         0.00000000
  68         1.13664962
  69         0.00000000
  70         0.01844437
  71         0.00248584
  72        -0.00103882
  73         0.00000000
  74         0.00000000
  75         0.00000000
  76        -0.10597016
  77         0.10794793
  78         2.89297524
  79         0.00000000
  80        -0.04856918
  81         0.00000000
  82         0.00000000
  83        -1.13664962
  84         0.00000000
  85         0.01844437
  86         0.00248584
  87        -0.00103882
  88         0.00000000
  89         0.00000000
  90         0.00000000
  91        -0.00973763
  92        -0.30801560
  93        -0.00973763
  94        -0.30801560
  95        -0.00973763
  96        -0.30801560
  97        -0.00973763
  98        -0.30801560
Sym=     9ag 
Ene=     0.7201
Spin= Alpha
Occup=    0.00000
   1         0.00406054
   2        -0.45268348
   3         0.41798471
   4         0.25471490
   5        -0.06641404
   6         0.00000000
   7        -0.11150367
   8         0.06403085
   9         0.00000000
  10        -0.00275749
  11        -0.07595002
  12        -0.00903023
  13        -0.03097188
  14         0.00000000
  15         0.00000000
  16         0.00406054
  17        -0.45268348
  18         0.41798471
  19        -0.25471490
  20        -0.06641404
  21         0.00000000
  22         0.11150367
  23         0.06403085
  24         0.00000000
  25        -0.00275749
  26        -0.07595002
  27        -0.00903023
  28         0.03097188
  29         0.00000000
  30         0.00000000
  31         0.00406054
  32        -0.45268348
  33         0.41798471
  34         0.25471490
  35         0.06641404
  36         0.00000000
  37        -0.11150367
  38        -0.06403085
  39         0.00000000
  40        -0.00275749
  41        -0.07595002
  42        -0.00903023
  43         0.03097188
  44         0.00000000
  45         0.00000000
  46         0.00406054
  47        -0.45268348
  48         0.41798471
  49        -0.25471490
  50         0.06641404
  51         0.00000000
  52         0.11150367
  53        -0.06403085
  54         0.00000000
  55        -0.00275749
  56        -0.07595002
  57        -0.00903023
  58        -0.03097188
  59         0.00000000
  60         0.00000000
  61        -0.02033494
  62        -0.46805138
  63         0.51949422
  64         0.00000000
  65         0.01880290
  66         0.00000000
  67         0.00000000
  68         0.00933615
  69         0.00000000
  70        -0.12266305
  71        -0.01562073
  72         0.00656789
  73         0.00000000
  74         0.00000000
  75         0.00000000
  76        -0.02033494
  77        -0.46805138
  78         0.51949422
  79         0.00000000
  80        -0.01880290
  81         0.00000000
  82         0.00000000
  83        -0.00933615
  84         0.00000000
  85        -0.12266305
  86        -0.01562073
  87         0.00656789
  88         0.00000000
  89         0.00000000
  90         0.00000000
  91         0.09326307
  92        -0.24975687
  93         0.09326307
  94        -0.24975687
  95         0.09326307
  96        -0.24975687
  97         0.09326307
  98        -0.24975687
Sym=    10ag 
Ene=     0.7988
Spin= Alpha
Occup=    0.00000
   1         0.03125262
   2         0.20088648
   3        -0.50183832
   4         0.17084610
   5         0.18356816
   6         0.00000000
   7        -0.12842621
   8        -0.25169320
   9         0.00000000
  10         0.04588787
  11         0.05430751
  12        -0.02358324
  13        -0.03599955
  14         0.00000000
  15         0.00000000
  16         0.03125262
  17         0.20088648
  18        -0.50183832
  19        -0.17084610
  20         0.18356816
  21         0.00000000
  22         0.12842621
  23        -0.25169320
  24         0.00000000
  25         0.04588787
  26         0.05430751
  27        -0.02358324
  28         0.03599955
  29         0.00000000
  30         0.00000000
  31         0.03125262
  32         0.20088648
  33        -0.50183832
  34         0.17084610
  35        -0.18356816
  36         0.00000000
  37        -0.12842621
  38         0.25169320
  39         0.00000000
  40         0.04588787
  41         0.05430751
  42        -0.02358324
  43         0.03599955
  44         0.00000000
  45         0.00000000
  46         0.03125262
  47         0.20088648
  48        -0.50183832
  49        -0.17084610
  50        -0.18356816
  51         0.00000000
  52         0.12842621
  53         0.25169320
  54         0.00000000
  55         0.04588787
  56         0.05430751
  57        -0.02358324
  58        -0.03599955
  59         0.00000000
  60         0.00000000
  61        -0.04120436
  62         0.23264364
  63         0.01812522
  64         0.00000000
  65        -0.32647970
  66         0.00000000
  67         0.00000000
  68         0.65803757
  69         0.00000000
  70        -0.03223638
  71         0.05196143
  72         0.02499694
  73         0.00000000
  74         0.00000000
  75         0.00000000
  76        -0.04120436
  77         0.23264364
  78         0.01812522
  79         0.00000000
  80         0.32647970
  81         0.00000000
  82         0.00000000
  83        -0.65803757
  84         0.00000000
  85        -0.03223638
  86         0.05196143
  87         0.02499694
  88         0.00000000
  89         0.00000000
  90         0.00000000
  91         0.31291549
  92        -0.01133163
  93         0.31291549
  94        -0.01133163
  95         0.31291549
  96        -0.01133163
  97         0.31291549
  98        -0.01133163
Sym=    11ag 
Ene=     0.8365
Spin= Alpha
Occup=    0.00000
   1        -0.02129871
   2        -0.18163708
   3         0.17107900
   4        -0.18971919
   5        -0.07628563
   6         0.00000000
   7         0.38137097
   8        -0.20396081
   9         0.00000000
  10        -0.10784054
  11        -0.01109794
  12         0.03620878
  13        -0.02641497
  14         0.00000000
  15         0.00000000
  16        -0.02129871
  17        -0.18163708
  18         0.17107900
  19         0.18971919
  20        -0.07628563
  21         0.00000000
  22        -0.38137097