[Molden Format]
[N_Atoms]
                   10
[Atoms] (AU)
C1          1      6           2.24059239     -1.40668495      0.00000000
C1          2      6          -2.24059239     -1.40668495      0.00000000
C1          3      6           2.24059239      1.40668495      0.00000000
C1          4      6          -2.24059239      1.40668495      0.00000000
C2          5      6           0.00000000     -2.53575667      0.00000000
C2          6      6           0.00000000      2.53575667      0.00000000
H3          7      1           4.08990934      2.23412280      0.00000000
H3          8      1          -4.08990934      2.23412280      0.00000000
H3          9      1           4.08990934     -2.23412280      0.00000000
H3         10      1          -4.08990934     -2.23412280      0.00000000
[Charge] (Mulliken)
  -1.0852776480994741     
  -1.0852776480994741     
  -1.0852776480994741     
  -1.0852776480994741     
   9.5964012138688659E-002
   9.5964012138688659E-002
  0.98931363596050703     
  0.98931363596050703     
  0.98931363596050703     
  0.98931363596050703     
[GTO] (AU)
   1
   s   6
  3.047524880E+03  1.834737132E-03
  4.573695180E+02  1.403732281E-02
  1.039486850E+02  6.884262227E-02
  2.921015530E+01  2.321844432E-01
  9.286662960E+00  4.679413484E-01
  3.163926960E+00  3.623119853E-01
   s   3
  7.868272350E+00 -1.193324198E-01
  1.881288540E+00 -1.608541517E-01
  5.442492580E-01  1.143456438E+00
   s   1
  1.687144782E-01  1.000000000E+00
   p   3
  7.868272350E+00  6.899906659E-02
  1.881288540E+00  3.164239610E-01
  5.442492580E-01  7.443082909E-01
   p   1
  1.687144782E-01  1.000000000E+00
   d   1
  8.000000000E-01  1.000000000E+00
 
   2
   s   6
  3.047524880E+03  1.834737132E-03
  4.573695180E+02  1.403732281E-02
  1.039486850E+02  6.884262227E-02
  2.921015530E+01  2.321844432E-01
  9.286662960E+00  4.679413484E-01
  3.163926960E+00  3.623119853E-01
   s   3
  7.868272350E+00 -1.193324198E-01
  1.881288540E+00 -1.608541517E-01
  5.442492580E-01  1.143456438E+00
   s   1
  1.687144782E-01  1.000000000E+00
   p   3
  7.868272350E+00  6.899906659E-02
  1.881288540E+00  3.164239610E-01
  5.442492580E-01  7.443082909E-01
   p   1
  1.687144782E-01  1.000000000E+00
   d   1
  8.000000000E-01  1.000000000E+00
 
   3
   s   6
  3.047524880E+03  1.834737132E-03
  4.573695180E+02  1.403732281E-02
  1.039486850E+02  6.884262227E-02
  2.921015530E+01  2.321844432E-01
  9.286662960E+00  4.679413484E-01
  3.163926960E+00  3.623119853E-01
   s   3
  7.868272350E+00 -1.193324198E-01
  1.881288540E+00 -1.608541517E-01
  5.442492580E-01  1.143456438E+00
   s   1
  1.687144782E-01  1.000000000E+00
   p   3
  7.868272350E+00  6.899906659E-02
  1.881288540E+00  3.164239610E-01
  5.442492580E-01  7.443082909E-01
   p   1
  1.687144782E-01  1.000000000E+00
   d   1
  8.000000000E-01  1.000000000E+00
 
   4
   s   6
  3.047524880E+03  1.834737132E-03
  4.573695180E+02  1.403732281E-02
  1.039486850E+02  6.884262227E-02
  2.921015530E+01  2.321844432E-01
  9.286662960E+00  4.679413484E-01
  3.163926960E+00  3.623119853E-01
   s   3
  7.868272350E+00 -1.193324198E-01
  1.881288540E+00 -1.608541517E-01
  5.442492580E-01  1.143456438E+00
   s   1
  1.687144782E-01  1.000000000E+00
   p   3
  7.868272350E+00  6.899906659E-02
  1.881288540E+00  3.164239610E-01
  5.442492580E-01  7.443082909E-01
   p   1
  1.687144782E-01  1.000000000E+00
   d   1
  8.000000000E-01  1.000000000E+00
 
   5
   s   6
  3.047524880E+03  1.834737132E-03
  4.573695180E+02  1.403732281E-02
  1.039486850E+02  6.884262227E-02
  2.921015530E+01  2.321844432E-01
  9.286662960E+00  4.679413484E-01
  3.163926960E+00  3.623119853E-01
   s   3
  7.868272350E+00 -1.193324198E-01
  1.881288540E+00 -1.608541517E-01
  5.442492580E-01  1.143456438E+00
   s   1
  1.687144782E-01  1.000000000E+00
   p   3
  7.868272350E+00  6.899906659E-02
  1.881288540E+00  3.164239610E-01
  5.442492580E-01  7.443082909E-01
   p   1
  1.687144782E-01  1.000000000E+00
   d   1
  8.000000000E-01  1.000000000E+00
 
   6
   s   6
  3.047524880E+03  1.834737132E-03
  4.573695180E+02  1.403732281E-02
  1.039486850E+02  6.884262227E-02
  2.921015530E+01  2.321844432E-01
  9.286662960E+00  4.679413484E-01
  3.163926960E+00  3.623119853E-01
   s   3
  7.868272350E+00 -1.193324198E-01
  1.881288540E+00 -1.608541517E-01
  5.442492580E-01  1.143456438E+00
   s   1
  1.687144782E-01  1.000000000E+00
   p   3
  7.868272350E+00  6.899906659E-02
  1.881288540E+00  3.164239610E-01
  5.442492580E-01  7.443082909E-01
   p   1
  1.687144782E-01  1.000000000E+00
   d   1
  8.000000000E-01  1.000000000E+00
 
   7
   s   3
  1.873113696E+01  3.349460434E-02
  2.825394365E+00  2.347269535E-01
  6.401216923E-01  8.137573261E-01
   s   1
  1.612777588E-01  1.000000000E+00
 
   8
   s   3
  1.873113696E+01  3.349460434E-02
  2.825394365E+00  2.347269535E-01
  6.401216923E-01  8.137573261E-01
   s   1
  1.612777588E-01  1.000000000E+00
 
   9
   s   3
  1.873113696E+01  3.349460434E-02
  2.825394365E+00  2.347269535E-01
  6.401216923E-01  8.137573261E-01
   s   1
  1.612777588E-01  1.000000000E+00
 
  10
   s   3
  1.873113696E+01  3.349460434E-02
  2.825394365E+00  2.347269535E-01
  6.401216923E-01  8.137573261E-01
   s   1
  1.612777588E-01  1.000000000E+00
 
[MO]
Sym=     1ag 
Ene=   -11.2660
Spin= Alpha
Occup=    2.00000
   1         0.49695522
   2         0.01355906
   3        -0.00437295
   4         0.00000363
   5        -0.00001353
   6         0.00000000
   7         0.00023883
   8         0.00033709
   9         0.00000000
  10        -0.00074272
  11        -0.00124925
  12        -0.00124204
  13         0.00003956
  14         0.00000000
  15         0.00000000
  16         0.49695522
  17         0.01355906
  18        -0.00437295
  19        -0.00000363
  20        -0.00001353
  21         0.00000000
  22        -0.00023883
  23         0.00033709
  24         0.00000000
  25        -0.00074272
  26        -0.00124925
  27        -0.00124204
  28        -0.00003956
  29         0.00000000
  30         0.00000000
  31         0.49695522
  32         0.01355906
  33        -0.00437295
  34         0.00000363
  35         0.00001353
  36         0.00000000
  37         0.00023883
  38        -0.00033709
  39         0.00000000
  40        -0.00074272
  41        -0.00124925
  42        -0.00124204
  43        -0.00003956
  44         0.00000000
  45         0.00000000
  46         0.49695522
  47         0.01355906
  48        -0.00437295
  49        -0.00000363
  50         0.00001353
  51         0.00000000
  52        -0.00023883
  53        -0.00033709
  54         0.00000000
  55        -0.00074272
  56        -0.00124925
  57        -0.00124204
  58         0.00003956
  59         0.00000000
  60         0.00000000
  61         0.03913636
  62         0.00063768
  63         0.00332031
  64         0.00000000
  65        -0.00015893
  66         0.00000000
  67         0.00000000
  68         0.00070623
  69         0.00000000
  70        -0.00026470
  71        -0.00030126
  72        -0.00022173
  73         0.00000000
  74         0.00000000
  75         0.00000000
  76         0.03913636
  77         0.00063768
  78         0.00332031
  79         0.00000000
  80         0.00015893
  81         0.00000000
  82         0.00000000
  83        -0.00070623
  84         0.00000000
  85        -0.00026470
  86        -0.00030126
  87        -0.00022173
  88         0.00000000
  89         0.00000000
  90         0.00000000
  91        -0.00016895
  92         0.00101529
  93        -0.00016895
  94         0.00101529
  95        -0.00016895
  96         0.00101529
  97        -0.00016895
  98         0.00101529
Sym=     2ag 
Ene=   -11.2450
Spin= Alpha
Occup=    2.00000
   1         0.02817524
   2         0.00115093
   3        -0.00390742
   4        -0.00023807
   5        -0.00008823
   6         0.00000000
   7         0.00207484
   8         0.00006481
   9         0.00000000
  10         0.00016894
  11         0.00015813
  12         0.00005084
  13         0.00016628
  14         0.00000000
  15         0.00000000
  16         0.02817524
  17         0.00115093
  18        -0.00390742
  19         0.00023807
  20        -0.00008823
  21         0.00000000
  22        -0.00207484
  23         0.00006481
  24         0.00000000
  25         0.00016894
  26         0.00015813
  27         0.00005084
  28        -0.00016628
  29         0.00000000
  30         0.00000000
  31         0.02817524
  32         0.00115093
  33        -0.00390742
  34        -0.00023807
  35         0.00008823
  36         0.00000000
  37         0.00207484
  38        -0.00006481
  39         0.00000000
  40         0.00016894
  41         0.00015813
  42         0.00005084
  43        -0.00016628
  44         0.00000000
  45         0.00000000
  46         0.02817524
  47         0.00115093
  48        -0.00390742
  49         0.00023807
  50         0.00008823
  51         0.00000000
  52        -0.00207484
  53        -0.00006481
  54         0.00000000
  55         0.00016894
  56         0.00015813
  57         0.00005084
  58         0.00016628
  59         0.00000000
  60         0.00000000
  61        -0.70299522
  62        -0.01937983
  63         0.01087683
  64         0.00000000
  65        -0.00073068
  66         0.00000000
  67         0.00000000
  68         0.00283603
  69         0.00000000
  70         0.00059975
  71         0.00159240
  72         0.00162417
  73         0.00000000
  74         0.00000000
  75         0.00000000
  76        -0.70299522
  77        -0.01937983
  78         0.01087683
  79         0.00000000
  80         0.00073068
  81         0.00000000
  82         0.00000000
  83        -0.00283603
  84         0.00000000
  85         0.00059975
  86         0.00159240
  87         0.00162417
  88         0.00000000
  89         0.00000000
  90         0.00000000
  91        -0.00000377
  92        -0.00043287
  93        -0.00000377
  94        -0.00043287
  95        -0.00000377
  96        -0.00043287
  97        -0.00000377
  98        -0.00043287
Sym=     3ag 
Ene=    -1.1656
Spin= Alpha
Occup=    2.00000
   1        -0.09203956
   2         0.17602783
   3         0.11198948
   4        -0.05954290
   5         0.02600806
   6         0.00000000
   7        -0.00584396
   8         0.00673148
   9         0.00000000
  10         0.00864731
  11         0.00603369
  12        -0.00856736
  13         0.00107634
  14         0.00000000
  15         0.00000000
  16        -0.09203956
  17         0.17602783
  18         0.11198948
  19         0.05954290
  20         0.02600806
  21         0.00000000
  22         0.00584396
  23         0.00673148
  24         0.00000000
  25         0.00864731
  26         0.00603369
  27        -0.00856736
  28        -0.00107634
  29         0.00000000
  30         0.00000000
  31        -0.09203956
  32         0.17602783
  33         0.11198948
  34        -0.05954290
  35        -0.02600806
  36         0.00000000
  37        -0.00584396
  38        -0.00673148
  39         0.00000000
  40         0.00864731
  41         0.00603369
  42        -0.00856736
  43        -0.00107634
  44         0.00000000
  45         0.00000000
  46        -0.09203956
  47         0.17602783
  48         0.11198948
  49         0.05954290
  50        -0.02600806
  51         0.00000000
  52         0.00584396
  53        -0.00673148
  54         0.00000000
  55         0.00864731
  56         0.00603369
  57        -0.00856736
  58         0.00107634
  59         0.00000000
  60         0.00000000
  61        -0.09555360
  62         0.18218686
  63         0.09986156
  64         0.00000000
  65         0.07404184
  66         0.00000000
  67         0.00000000
  68         0.00797121
  69         0.00000000
  70         0.00849541
  71        -0.00030501
  72        -0.00875100
  73         0.00000000
  74         0.00000000
  75         0.00000000
  76        -0.09555360
  77         0.18218686
  78         0.09986156
  79         0.00000000
  80        -0.07404184
  81         0.00000000
  82         0.00000000
  83        -0.00797121
  84         0.00000000
  85         0.00849541
  86        -0.00030501
  87        -0.00875100
  88         0.00000000
  89         0.00000000
  90         0.00000000
  91         0.03484534
  92         0.00305024
  93         0.03484534
  94         0.00305024
  95         0.03484534
  96         0.00305024
  97         0.03484534
  98         0.00305024
Sym=     4ag 
Ene=    -0.7992
Spin= Alpha
Occup=    2.00000
   1        -0.04329629
   2         0.08693120
   3         0.08224436
   4         0.19294177
   5         0.07190237
   6         0.00000000
   7         0.07372799
   8         0.01915173
   9         0.00000000
  10         0.00268238
  11         0.00741166
  12        -0.00332015
  13        -0.00731783
  14         0.00000000
  15         0.00000000
  16        -0.04329629
  17         0.08693120
  18         0.08224436
  19        -0.19294177
  20         0.07190237
  21         0.00000000
  22        -0.07372799
  23         0.01915173
  24         0.00000000
  25         0.00268238
  26         0.00741166
  27        -0.00332015
  28         0.00731783
  29         0.00000000
  30         0.00000000
  31        -0.04329629
  32         0.08693120
  33         0.08224436
  34         0.19294177
  35        -0.07190237
  36         0.00000000
  37         0.07372799
  38        -0.01915173
  39         0.00000000
  40         0.00268238
  41         0.00741166
  42        -0.00332015
  43         0.00731783
  44         0.00000000
  45         0.00000000
  46        -0.04329629
  47         0.08693120
  48         0.08224436
  49        -0.19294177
  50        -0.07190237
  51         0.00000000
  52        -0.07372799
  53        -0.01915173
  54         0.00000000
  55         0.00268238
  56         0.00741166
  57        -0.00332015
  58        -0.00731783
  59         0.00000000
  60         0.00000000
  61         0.08310508
  62        -0.16731113
  63        -0.09978149
  64         0.00000000
  65        -0.04014429
  66         0.00000000
  67         0.00000000
  68         0.01221928
  69         0.00000000
  70        -0.00464122
  71         0.00093201
  72         0.00532528
  73         0.00000000
  74         0.00000000
  75         0.00000000
  76         0.08310508
  77        -0.16731113
  78        -0.09978149
  79         0.00000000
  80         0.04014429
  81         0.00000000
  82         0.00000000
  83        -0.01221928
  84         0.00000000
  85        -0.00464122
  86         0.00093201
  87         0.00532528
  88         0.00000000
  89         0.00000000
  90         0.00000000
  91         0.10991753
  92         0.04708746
  93         0.10991753
  94         0.04708746
  95         0.10991753
  96         0.04708746
  97         0.10991753
  98         0.04708746
Sym=     5ag 
Ene=    -0.6426
Spin= Alpha
Occup=    2.00000
   1         0.00867464
   2        -0.02163693
   3        -0.00282305
   4         0.07129207
   5        -0.23115095
   6         0.00000000
   7         0.03580071
   8        -0.09456505
   9         0.00000000
  10         0.00877892
  11        -0.00784851
  12         0.00029349
  13         0.00340357
  14         0.00000000
  15         0.00000000
  16         0.00867464
  17        -0.02163693
  18        -0.00282305
  19        -0.07129207
  20        -0.23115095
  21         0.00000000
  22        -0.03580071
  23        -0.09456505
  24         0.00000000
  25         0.00877892
  26        -0.00784851
  27         0.00029349
  28        -0.00340357
  29         0.00000000
  30         0.00000000
  31         0.00867464
  32        -0.02163693
  33        -0.00282305
  34         0.07129207
  35         0.23115095
  36         0.00000000
  37         0.03580071
  38         0.09456505
  39         0.00000000
  40         0.00877892
  41        -0.00784851
  42         0.00029349
  43        -0.00340357
  44         0.00000000
  45         0.00000000
  46         0.00867464
  47        -0.02163693
  48        -0.00282305
  49        -0.07129207
  50         0.23115095
  51         0.00000000
  52        -0.03580071
  53         0.09456505
  54         0.00000000
  55         0.00877892
  56        -0.00784851
  57         0.00029349
  58         0.00340357
  59         0.00000000
  60         0.00000000
  61        -0.06120555
  62         0.12507708
  63         0.15068399
  64         0.00000000
  65        -0.12720241
  66         0.00000000
  67         0.00000000
  68        -0.05962001
  69         0.00000000
  70         0.01411975
  71        -0.01662356
  72        -0.00041235
  73         0.00000000
  74         0.00000000
  75         0.00000000
  76        -0.06120555
  77         0.12507708
  78         0.15068399
  79         0.00000000
  80         0.12720241
  81         0.00000000
  82         0.00000000
  83         0.05962001
  84         0.00000000
  85         0.01411975
  86        -0.01662356
  87        -0.00041235
  88         0.00000000
  89         0.00000000
  90         0.00000000
  91         0.08323789
  92         0.05207109
  93         0.08323789
  94         0.05207109
  95         0.08323789
  96         0.05207109
  97         0.08323789
  98         0.05207109
Sym=     6ag 
Ene=    -0.0093
Spin= Alpha
Occup=    0.00000
   1         0.00566292
   2         0.00715434
   3        -0.15533286
   4        -0.05766695
   5        -0.16865806
   6         0.00000000
   7        -0.01379254
   8        -0.10456256
   9         0.00000000
  10         0.02006472
  11        -0.01806764
  12         0.00065030
  13        -0.01704504
  14         0.00000000
  15         0.00000000
  16         0.00566292
  17         0.00715434
  18        -0.15533286
  19         0.05766695
  20        -0.16865806
  21         0.00000000
  22         0.01379254
  23        -0.10456256
  24         0.00000000
  25         0.02006472
  26        -0.01806764
  27         0.00065030
  28         0.01704504
  29         0.00000000
  30         0.00000000
  31         0.00566292
  32         0.00715434
  33        -0.15533286
  34        -0.05766695
  35         0.16865806
  36         0.00000000
  37        -0.01379254
  38         0.10456256
  39         0.00000000
  40         0.02006472
  41        -0.01806764
  42         0.00065030
  43         0.01704504
  44         0.00000000
  45         0.00000000
  46         0.00566292
  47         0.00715434
  48        -0.15533286
  49         0.05766695
  50         0.16865806
  51         0.00000000
  52         0.01379254
  53         0.10456256
  54         0.00000000
  55         0.02006472
  56        -0.01806764
  57         0.00065030
  58        -0.01704504
  59         0.00000000
  60         0.00000000
  61         0.03497140
  62        -0.04560640
  63        -0.18561038
  64         0.00000000
  65         0.31646017
  66         0.00000000
  67         0.00000000
  68         0.39226633
  69         0.00000000
  70         0.01042297
  71         0.00396899
  72        -0.00426437
  73         0.00000000
  74         0.00000000
  75         0.00000000
  76         0.03497140
  77        -0.04560640
  78        -0.18561038
  79         0.00000000
  80        -0.31646017
  81         0.00000000
  82         0.00000000
  83        -0.39226633
  84         0.00000000
  85         0.01042297
  86         0.00396899
  87        -0.00426437
  88         0.00000000
  89         0.00000000
  90         0.00000000
  91         0.08186050
  92         0.18667106
  93         0.08186050
  94         0.18667106
  95         0.08186050
  96         0.18667106
  97         0.08186050
  98         0.18667106
Sym=     7ag 
Ene=     0.2558
Spin= Alpha
Occup=    0.00000
   1         0.05238010
   2        -0.08535034
   3        -0.67600998
   4        -0.07788791
   5         0.11170358
   6         0.00000000
   7        -0.47791382
   8         0.33335106
   9         0.00000000
  10         0.00849201
  11        -0.00247585
  12        -0.00065115
  13        -0.00045564
  14         0.00000000
  15         0.00000000
  16         0.05238010
  17        -0.08535034
  18        -0.67600998
  19         0.07788791
  20         0.11170358
  21         0.00000000
  22         0.47791382
  23         0.33335106
  24         0.00000000
  25         0.00849201
  26        -0.00247585
  27        -0.00065115
  28         0.00045564
  29         0.00000000
  30         0.00000000
  31         0.05238010
  32        -0.08535034
  33        -0.67600998
  34        -0.07788791
  35        -0.11170358
  36         0.00000000
  37        -0.47791382
  38        -0.33335106
  39         0.00000000
  40         0.00849201
  41        -0.00247585
  42        -0.00065115
  43         0.00045564
  44         0.00000000
  45         0.00000000
  46         0.05238010
  47        -0.08535034
  48        -0.67600998
  49         0.07788791
  50        -0.11170358
  51         0.00000000
  52         0.47791382
  53        -0.33335106
  54         0.00000000
  55         0.00849201
  56        -0.00247585
  57        -0.00065115
  58        -0.00045564
  59         0.00000000
  60         0.00000000
  61        -0.01694325
  62         0.03628636
  63        -0.06983705
  64         0.00000000
  65        -0.01718564
  66         0.00000000
  67         0.00000000
  68        -0.40115029
  69         0.00000000
  70        -0.02203467
  71         0.01114542
  72         0.00391517
  73         0.00000000
  74         0.00000000
  75         0.00000000
  76        -0.01694325
  77         0.03628636
  78        -0.06983705
  79         0.00000000
  80         0.01718564
  81         0.00000000
  82         0.00000000
  83         0.40115029
  84         0.00000000
  85        -0.02203467
  86         0.01114542
  87         0.00391517
  88         0.00000000
  89         0.00000000
  90         0.00000000
  91         0.00535881
  92         1.06009221
  93         0.00535881
  94         1.06009221
  95         0.00535881
  96         1.06009221
  97         0.00535881
  98         1.06009221
Sym=     8ag 
Ene=     0.4454
Spin= Alpha
Occup=    0.00000
   1         0.04302264
   2         0.01257794
   3        -1.44698855
   4         0.03814654
   5        -0.02964829
   6         0.00000000
   7         1.26616194
   8         0.38619909
   9         0.00000000
  10         0.00813830
  11        -0.01500210
  12         0.00668206
  13         0.01477240
  14         0.00000000
  15         0.00000000
  16         0.04302264
  17         0.01257794
  18        -1.44698855
  19        -0.03814654
  20        -0.02964829
  21         0.00000000
  22        -1.26616194
  23         0.38619909
  24         0.00000000
  25         0.00813830
  26        -0.01500210
  27         0.00668206
  28        -0.01477240
  29         0.00000000
  30         0.00000000
  31         0.04302264
  32         0.01257794
  33        -1.44698855
  34         0.03814654
  35         0.02964829
  36         0.00000000
  37         1.26616194
  38        -0.38619909
  39         0.00000000
  40         0.00813830
  41        -0.01500210
  42         0.00668206
  43        -0.01477240
  44         0.00000000
  45         0.00000000
  46         0.04302264
  47         0.01257794
  48        -1.44698855
  49        -0.03814654
  50         0.02964829
  51         0.00000000
  52        -1.26616194
  53        -0.38619909
  54         0.00000000
  55         0.00813830
  56        -0.01500210
  57         0.00668206
  58         0.01477240
  59         0.00000000
  60         0.00000000
  61        -0.10688442
  62         0.11610077
  63         3.41897906
  64         0.00000000
  65         0.02090472
  66         0.00000000
  67         0.00000000
  68         1.22909815
  69         0.00000000
  70         0.02627174
  71        -0.00063070
  72        -0.00292749
  73         0.00000000
  74         0.00000000
  75         0.00000000
  76        -0.10688442
  77         0.11610077
  78         3.41897906
  79         0.00000000
  80        -0.02090472
  81         0.00000000
  82         0.00000000
  83        -1.22909815
  84         0.00000000
  85         0.02627174
  86        -0.00063070
  87        -0.00292749
  88         0.00000000
  89         0.00000000
  90         0.00000000
  91         0.00516627
  92        -0.42477902
  93         0.00516627
  94        -0.42477902
  95         0.00516627
  96        -0.42477902
  97         0.00516627
  98        -0.42477902
Sym=     9ag 
Ene=     0.7166
Spin= Alpha
Occup=    0.00000
   1         0.01057408
   2        -0.45000872
   3         0.28999045
   4         0.25112388
   5        -0.05008594
   6         0.00000000
   7        -0.01240548
   8         0.02893915
   9         0.00000000
  10         0.00450116
  11        -0.07758180
  12        -0.00916879
  13        -0.03230872
  14         0.00000000
  15         0.00000000
  16         0.01057408
  17        -0.45000872
  18         0.28999045
  19        -0.25112388
  20        -0.05008594
  21         0.00000000
  22         0.01240548
  23         0.02893915
  24         0.00000000
  25         0.00450116
  26        -0.07758180
  27        -0.00916879
  28         0.03230872
  29         0.00000000
  30         0.00000000
  31         0.01057408
  32        -0.45000872
  33         0.28999045
  34         0.25112388
  35         0.05008594
  36         0.00000000
  37        -0.01240548
  38        -0.02893915
  39         0.00000000
  40         0.00450116
  41        -0.07758180
  42        -0.00916879
  43         0.03230872
  44         0.00000000
  45         0.00000000
  46         0.01057408
  47        -0.45000872
  48         0.28999045
  49        -0.25112388
  50         0.05008594
  51         0.00000000
  52         0.01240548
  53        -0.02893915
  54         0.00000000
  55         0.00450116
  56        -0.07758180
  57        -0.00916879
  58        -0.03230872
  59         0.00000000
  60         0.00000000
  61        -0.03101435
  62        -0.46249745
  63         0.78846540
  64         0.00000000
  65         0.01348791
  66         0.00000000
  67         0.00000000
  68         0.18163836
  69         0.00000000
  70        -0.11643232
  71        -0.01287269
  72         0.01037896
  73         0.00000000
  74         0.00000000
  75         0.00000000
  76        -0.03101435
  77        -0.46249745
  78         0.78846540
  79         0.00000000
  80        -0.01348791
  81         0.00000000
  82         0.00000000
  83        -0.18163836
  84         0.00000000
  85        -0.11643232
  86        -0.01287269
  87         0.01037896
  88         0.00000000
  89         0.00000000
  90         0.00000000
  91         0.11163414
  92        -0.28367461
  93         0.11163414
  94        -0.28367461
  95         0.11163414
  96        -0.28367461
  97         0.11163414
  98        -0.28367461
Sym=    10ag 
Ene=     0.8114
Spin= Alpha
Occup=    0.00000
   1         0.03537215
   2         0.27996591
   3        -0.55082995
   4         0.19239192
   5         0.20681772
   6         0.00000000
   7        -0.29293205
   8        -0.17425971
   9         0.00000000
  10         0.08100137
  11         0.06565845
  12        -0.03586021
  13        -0.02579217
  14         0.00000000
  15         0.00000000
  16         0.03537215
  17         0.27996591
  18        -0.55082995
  19        -0.19239192
  20         0.20681772
  21         0.00000000
  22         0.29293205
  23        -0.17425971
  24         0.00000000
  25         0.08100137
  26         0.06565845
  27        -0.03586021
  28         0.02579217
  29         0.00000000
  30         0.00000000
  31         0.03537215
  32         0.27996591
  33        -0.55082995
  34         0.19239192
  35        -0.20681772
  36         0.00000000
  37        -0.29293205
  38         0.17425971
  39         0.00000000
  40         0.08100137
  41         0.06565845
  42        -0.03586021
  43         0.02579217
  44         0.00000000
  45         0.00000000
  46         0.03537215
  47         0.27996591
  48        -0.55082995
  49        -0.19239192
  50        -0.20681772
  51         0.00000000
  52         0.29293205
  53         0.17425971
  54         0.00000000
  55         0.08100137
  56         0.06565845
  57        -0.03586021
  58        -0.02579217
  59         0.00000000
  60         0.00000000
  61        -0.04226918
  62         0.27923666
  63        -0.17188110
  64         0.00000000
  65        -0.15943272
  66         0.00000000
  67         0.00000000
  68         0.26344473
  69         0.00000000
  70        -0.05201440
  71         0.05644418
  72         0.01782546
  73         0.00000000
  74         0.00000000
  75         0.00000000
  76        -0.04226918
  77         0.27923666
  78        -0.17188110
  79         0.00000000
  80         0.15943272
  81         0.00000000
  82         0.00000000
  83        -0.26344473
  84         0.00000000
  85        -0.05201440
  86         0.05644418
  87         0.01782546
  88         0.00000000
  89         0.00000000
  90         0.00000000
  91         0.34483136
  92         0.08213775
  93         0.34483136
  94         0.08213775
  95         0.34483136
  96         0.08213775
  97         0.34483136
  98         0.08213775
Sym=    11ag 
Ene=     0.8488
Spin= Alpha
Occup=    0.00000
   1        -0.00943767
   2        -0.11382752
   3        -0.03094041
   4        -0.09420031
   5         0.02734598
   6         0.00000000
   7         0.34123440
   8        -0.32722737
   9         0.00000000
  10        -0.10082173
  11         0.01764398
  12         0.03015171
  13        -0.02167650
  14         0.00000000
  15         0.00000000
  16        -0.00943767
  17        -0.11382752
  18        -0.03094041
  19         0.09420031
  20         0.02734598
  21         0.00000000
  22        -0.34123440