   This run of MOLCAS is using the pymolcas driver

                             OPE
                             OPE          NMOL  CASOP  ENMOLC A   SO
                 OPE        NMOLC        AS  OP EN  MO LC     AS  OP
                OPENM       OL CA        SO  PE NM  OL CA     SOP EN
                OP EN      MO   LC       AS  OP ENMOL  CASO   PENMOL
                OP  EN     MO   LC       AS  OP EN     MO     LC ASO
               OP   E  NMOL  C  AS       OP  EN MO     LC     AS  OP
               OP  E   NMO   LC AS        OPEN  MO     LCASOP EN   M
               O  PEN   MO  LCA  SO
            OPE   NMO   L   CAS    OP
        OPENMOL  CASOP     ENMOL   CASOPE
     OPENMOLCA   SOPENMOLCASOPEN   MOLCASOPE
    OPENMOLCAS   OP           EN   MOL    CAS
    OPENMOLCAS       OP  ENM        O     LCA
    OPENMOLCAS    OPEN  MOLCASO     P  E  NMO
    OPENMOLCAS     OP               E  N  MOL
    OPENMOLCA   SO           PENM   O  L  CAS    OPEN    MO    LCAS
    OPENMOLCA   SOP           ENM   O  L  CAS   OP  EN  MOLC  AS   O
    OPENMOLCA   SOPE           NM      O  LCA   S      OP  EN MO
    OPENMOLC                AS         O  PEN   M      OL  CA  SOPE
    OPENMO        LCASOPE  NMOL        C  ASO   P      ENMOLC     AS
    OPE     NMO      LCA  SO     P     E   NM   OL  CA SO  PE N   MO
          OPENMOLCA            SOPE   NMO        LCAS  O    P  ENMO
     OPENMOLCASOPENMOLCASOPENMOLCASOPENMOLCA
        OPENMOLCASOPENMOLCASOPENMOLCASOPE
            OPENMOLCASOPENMOLCASOPENM
               OPENMOLCASOPENMOLCA        version: 24.02
                   OPENMOLCASO
                       OPE                tag: 428-g03afa2e9a

 OpenMolcas is free software; you can redistribute it and/or modify it
 under the terms of the GNU Lesser General Public License version 2.1.
 OpenMolcas is distributed in the hope that it will be useful, but it
 is provided "as is" and without any express or implied warranties.
 For more details see the full text of the license in the file
 LICENSE or in <http://www.gnu.org/licenses/>.

                 Copyright (C) The OpenMolcas Authors
           For the author list and the recommended citation,
                   consult the file CONTRIBUTORS.md

           *************************************************
           * pymolcas version py2.28                       *
           *   build c4a6d18ded8cb6cad61d2372a9abd97c      *
           *   (after the EMIL interpreter by V. Veryazov) *
           *************************************************

configuration info
------------------
Host name: DESKTOP-ET1S6F4 (Linux)
C Compiler ID: GNU
C flags: -std=gnu99 -fopenmp
Fortran Compiler ID: GNU
Fortran flags: -fno-aggressive-loop-optimizations -cpp -fdefault-integer-8 -fopenmp
Definitions: _WARNING_WORKAROUND_;_MOLCAS_;_I8_;_LINUX_
Parallel: OFF (GA=OFF)


   ----------------------------------------------------------------------
  |
  |           Project: product2
  |    Submitted from: /home/kenya/molcas_test/0625_re
  |      Scratch area: /tmp/product2
  |   Save outputs to: /home/kenya/molcas_test/0625_re
  |            Molcas: /home/kenya/OpenMolcas/builds/gnu_dev_omp
  |
  | Scratch area is NOT empty
  |
  |    MOLCAS_DRIVER = /home/kenya/OpenMolcas/builds/gnu_dev_omp/pymolcas
  |    MOLCAS_NPROCS = 1
  |    MOLCAS_SOURCE = /home/kenya/OpenMolcas
  | MOLCAS_STRUCTURE = 0
  |
   ----------------------------------------------------------------------

++ ---------   Input file   ---------

&GATEWAY
Coord = product.Opt.xyz
  Basis = 6-31G*
  Group = Full
  NoCD

>>> DO WHILE

  &SEWARD

  &RASSCF
    Inactive = 4 3 4 3 0 0 0 0
    RAS2   = 2 1 2 1 2 1 2 1
    nActEl = 12 0 0
    alter = 2
    3 6 7
    4 4 5
    LUMORB

  &MCKINLEY

  &ALASKA

  &SLAPAF

>>> END DO

-- ----------------------------------

*** symbolic link created: INPORB -> product2.RasOrb
--- Start Module: gateway at Tue Jul  2 11:41:15 2024 ---

()()()()()()()()()()()()()()()()()()()()()()()()()()()()()()()()()()()()()()()()()()()()()()()()()()

                                              &GATEWAY

                                   only a single process is used
                       available to each process: 2.0 GB of memory, 1 thread
                                            pid: 272281
()()()()()()()()()()()()()()()()()()()()()()()()()()()()()()()()()()()()()()()()()()()()()()()()()()

      Found SYMMETRY generators: x y z

++    Symmetry information:
      ---------------------

                    --- Group Generators ---
                    Reflection in the yz-plane  
                    Reflection in the xz-plane  
                    Reflection in the xy-plane  

                    Character Table for D2h

                             E   s(yz) s(xz) C2(z) s(xy) C2(y) C2(x)   i  
                    ag       1     1     1     1     1     1     1     1  
                    b3u      1    -1     1    -1     1    -1     1    -1  x
                    b2u      1     1    -1    -1     1     1    -1    -1  y
                    b1g      1    -1    -1     1     1    -1    -1     1  xy, Rz
                    b1u      1     1     1     1    -1    -1    -1    -1  z
                    b2g      1    -1     1    -1    -1     1    -1     1  xz, Ry
                    b3g      1     1    -1    -1    -1    -1     1     1  yz, Rx
                    au       1    -1    -1     1    -1     1     1    -1  I
--


++    Basis set information:
      ----------------------


      Basis set label: C.6-31G**....

      Electronic valence basis set:
      ------------------
      Associated Effective Charge   6.000000 au
      Associated Actual Charge      6.000000 au
      Nuclear Model: Point charge

      Shell  nPrim  nBasis  Cartesian Spherical Contaminant
         s      10       3        X                  
         p       4       2        X                  
         d       1       1        X                  


      Basis set label: H.6-31G....

      Electronic valence basis set:
      ------------------
      Associated Effective Charge   1.000000 au
      Associated Actual Charge      1.000000 au
      Nuclear Model: Point charge

      Shell  nPrim  nBasis  Cartesian Spherical Contaminant
         s       4       2        X                  
--


++    Molecular structure info:
      -------------------------

                    ************************************************ 
                    **** Cartesian Coordinates / Bohr, Angstrom **** 
                    ************************************************ 

     Center  Label                x              y              z                     x              y              z
        1      C1               2.240592      -1.406685       0.000000              1.185670      -0.744386       0.000000
        2      C1              -2.240592      -1.406685       0.000000             -1.185670      -0.744386       0.000000
        3      C1               2.240592       1.406685       0.000000              1.185670       0.744386       0.000000
        4      C1              -2.240592       1.406685       0.000000             -1.185670       0.744386       0.000000
        5      C2               0.000000      -2.535757       0.000000              0.000000      -1.341865       0.000000
        6      C2               0.000000       2.535757       0.000000              0.000000       1.341865       0.000000
        7      H3               4.089909       2.234123       0.000000              2.164287       1.182247       0.000000
        8      H3              -4.089909       2.234123       0.000000             -2.164287       1.182247       0.000000
        9      H3               4.089909      -2.234123       0.000000              2.164287      -1.182247       0.000000
       10      H3              -4.089909      -2.234123       0.000000             -2.164287      -1.182247       0.000000

                    *************************************** 
                    *    InterNuclear Distances / Bohr    * 
                    *************************************** 

               1 C1            2 C1            3 C1            4 C1            5 C2            6 C2    
    1 C1       0.000000
    2 C1       4.481185        0.000000
    3 C1       2.813370        5.291131        0.000000
    4 C1       5.291131        2.813370        4.481185        0.000000
    5 C2       2.508995        2.508995        4.534655        4.534655        0.000000
    6 C2       4.534655        4.534655        2.508995        2.508995        5.071513        0.000000
    7 H3       4.083559        7.302789        2.025988        6.384348        6.283240        4.101017
    8 H3       7.302789        4.083559        6.384348        2.025988        6.283240        4.101017
    9 H3       2.025988        6.384348        4.083559        7.302789        4.101017        6.283240
   10 H3       6.384348        2.025988        7.302789        4.083559        4.101017        6.283240

               7 H3            8 H3            9 H3           10 H3    
    7 H3       0.000000
    8 H3       8.179819        0.000000
    9 H3       4.468246        9.320657        0.000000
   10 H3       9.320657        4.468246        8.179819        0.000000

                    ******************************************* 
                    *    InterNuclear Distances / Angstrom    * 
                    ******************************************* 

               1 C1            2 C1            3 C1            4 C1            5 C2            6 C2    
    1 C1       0.000000
    2 C1       2.371341        0.000000
    3 C1       1.488771        2.799946        0.000000
    4 C1       2.799946        1.488771        2.371341        0.000000
    5 C2       1.327703        1.327703        2.399636        2.399636        0.000000
    6 C2       2.399636        2.399636        1.327703        1.327703        2.683729        0.000000
    7 H3       2.160926        3.864470        1.072107        3.378452        3.324948        2.170165
    8 H3       3.864470        2.160926        3.378452        1.072107        3.324948        2.170165
    9 H3       1.072107        3.378452        2.160926        3.864470        2.170165        3.324948
   10 H3       3.378452        1.072107        3.864470        2.160926        2.170165        3.324948

               7 H3            8 H3            9 H3           10 H3    
    7 H3       0.000000
    8 H3       4.328574        0.000000
    9 H3       2.364494        4.932279        0.000000
   10 H3       4.932279        2.364494        4.328574        0.000000

                    ************************************** 
                    *    Valence Bond Angles / Degree    * 
                    ************************************** 
                          Atom centers                 Phi
                      3 C1       1 C1       5 C2       116.74
                      3 C1       1 C1       9 H3       114.11
                      5 C2       1 C1       9 H3       129.15
                      4 C1       2 C1       5 C2       116.74
                      4 C1       2 C1      10 H3       114.11
                      5 C2       2 C1      10 H3       129.15
                      1 C1       3 C1       6 C2       116.74
                      1 C1       3 C1       7 H3       114.11
                      6 C2       3 C1       7 H3       129.15
                      2 C1       4 C1       6 C2       116.74
                      2 C1       4 C1       8 H3       114.11
                      6 C2       4 C1       8 H3       129.15
                      1 C1       5 C2       2 C1       126.51
                      3 C1       6 C2       4 C1       126.51

           ***************************************************************
           *              Valence Dihedral Angles / Degree               *
           ***************************************************************
                    Atom centers                       Phi1     Phi2     Theta 
           5 C2       1 C1       3 C1       6 C2        116.74   116.74    -0.00
           5 C2       1 C1       3 C1       7 H3        116.74   114.11  -180.00
           5 C2       2 C1       4 C1       6 C2        116.74   116.74    -0.00
           5 C2       2 C1       4 C1       8 H3        116.74   114.11  -180.00
           6 C2       3 C1       1 C1       9 H3        116.74   114.11  -180.00
           7 H3       3 C1       1 C1       9 H3        114.11   114.11     0.00
           1 C1       3 C1       6 C2       4 C1        116.74   126.51    -0.00
           6 C2       4 C1       2 C1      10 H3        116.74   114.11  -180.00
           8 H3       4 C1       2 C1      10 H3        114.11   114.11    -0.00
           2 C1       4 C1       6 C2       3 C1        116.74   126.51    -0.00
           2 C1       5 C2       1 C1       3 C1        126.51   116.74    -0.00
           2 C1       5 C2       1 C1       9 H3        126.51   129.15  -180.00
           1 C1       5 C2       2 C1       4 C1        126.51   116.74    -0.00
           1 C1       5 C2       2 C1      10 H3        126.51   129.15  -180.00
           4 C1       6 C2       3 C1       7 H3        126.51   129.15  -180.00
           3 C1       6 C2       4 C1       8 H3        126.51   129.15  -180.00
--


            Nuclear Potential Energy            186.86183486 au

--- Stop Module: gateway at Tue Jul  2 11:41:15 2024 /rc=_RC_ALL_IS_WELL_ ---
*** files: xmldump
    saved to directory /home/kenya/molcas_test/0625_re

*** symbolic link created: INPORB -> product2.RasOrb
--- Start Module: seward at Tue Jul  2 11:41:15 2024 ---

()()()()()()()()()()()()()()()()()()()()()()()()()()()()()()()()()()()()()()()()()()()()()()()()()()

                                              &SEWARD

                                   only a single process is used
                       available to each process: 2.0 GB of memory, 1 thread
                                            pid: 272284
()()()()()()()()()()()()()()()()()()()()()()()()()()()()()()()()()()()()()()()()()()()()()()()()()()

               SEWARD will generate:
                  Multipole Moment integrals up to order  2
                  Kinetic Energy integrals
                  Nuclear Attraction integrals (point charge)
                  One-Electron Hamiltonian integrals
                  Velocity integrals
                  Orbital angular momentum around ( 0.0000  0.0000  0.0000 )
                  Velocity quadrupole around ( 0.0000  0.0000  0.0000 )
                  Two-Electron Repulsion integrals

                   Integrals are discarded if absolute value <: 1.00E-14
                   Integral cutoff threshold is set to       <: 1.00E-16

                    Unitary symmetry adaptation


            Nuclear Potential Energy            186.86183486 au


      Basis set specifications :
      Symmetry species         ag   b3u  b2u  b1g  b1u  b2g  b3g  au 
      Basis functions           21   16   21   16    7    5    7    5


      Input file to MOLDEN was generated!

--- Stop Module: seward at Tue Jul  2 11:41:16 2024 /rc=_RC_ALL_IS_WELL_ ---
*** files: product2.GssOrb product2.guessorb.molden xmldump
    saved to directory /home/kenya/molcas_test/0625_re

*** symbolic link created: INPORB -> product2.RasOrb
--- Start Module: rasscf at Tue Jul  2 11:41:16 2024 ---

()()()()()()()()()()()()()()()()()()()()()()()()()()()()()()()()()()()()()()()()()()()()()()()()()()

                                              &RASSCF

                                   only a single process is used
                       available to each process: 2.0 GB of memory, 1 thread
                                            pid: 272317
()()()()()()()()()()()()()()()()()()()()()()()()()()()()()()()()()()()()()()()()()()()()()()()()()()

 ###############################################################################
 ###############################################################################
 ###                                                                         ###
 ###                                                                         ###
 ###    WARNING: Had to guess the spin.                                      ###
 ###                                                                         ###
 ###                                                                         ###
 ###############################################################################
 ###############################################################################
  Warning: no input and no reliable source
  for the spin multiplicity.
  Guess ISPIN=                    1

      Header of the ONEINT file:
      --------------------------
      
      Integrals generated by Gateway/Seward, Tue Jul  2 11:41:15 2024


      OrdInt status: non-squared


      Cartesian coordinates in Angstrom:
      -----------------------------------------------------
      No.  Label        X            Y            Z        
      -----------------------------------------------------
       1   C1         1.18567043  -0.74438562   0.00000000
       2   C2         0.00000000  -1.34186464   0.00000000
       3   H3         2.16428682   1.18224687   0.00000000
       4   C1        -1.18567043  -0.74438562   0.00000000
       5   C1         1.18567043   0.74438562   0.00000000
       6   C1        -1.18567043   0.74438562   0.00000000
       7   C2         0.00000000   1.34186464   0.00000000
       8   H3        -2.16428682   1.18224687   0.00000000
       9   H3         2.16428682  -1.18224687   0.00000000
      10   H3        -2.16428682  -1.18224687   0.00000000
      -----------------------------------------------------
      Nuclear repulsion energy =  186.86183486

++    Wave function specifications:
      -----------------------------

      Number of closed shell electrons          28
      Number of electrons in active shells      12
      Max number of holes in RAS1 space          0
      Max nr of electrons in RAS3 space          0
      Number of inactive orbitals               14
      Number of active orbitals                 12
      Number of secondary orbitals              72
      Spin quantum number                      0.0
      State symmetry                             1
--

++    Orbital specifications:
      -----------------------

      Symmetry species                           1   2   3   4   5   6   7   8
                                                ag b3u b2u b1g b1u b2g b3g  au
      Frozen orbitals                            0   0   0   0   0   0   0   0
      Inactive orbitals                          4   3   4   3   0   0   0   0
      Active orbitals                            2   1   2   1   2   1   2   1
      RAS1 orbitals                              0   0   0   0   0   0   0   0
      RAS2 orbitals                              2   1   2   1   2   1   2   1
      RAS3 orbitals                              0   0   0   0   0   0   0   0
      Secondary orbitals                        15  12  15  12   5   4   5   4
      Deleted orbitals                           0   0   0   0   0   0   0   0
      Number of basis functions                 21  16  21  16   7   5   7   5
--

++    CI expansion specifications:
      ----------------------------

      Number of CSFs                         28704
      Number of determinants                 54022
      Number of root(s) required                 1
      Root chosen for geometry opt.              1
      CI root used                               1
         
      highest root included in the CI            1
      max. size of the explicit Hamiltonian    200
--

++    Optimization specifications:
      ----------------------------

      RASSCF algorithm: Conventional
      Maximum number of macro iterations       200
      Maximum number of SX iterations          100
      Threshold for RASSCF energy            1.000E-08
      Threshold for max MO rotation          1.000E-01
      Threshold for max BLB element          1.000E-04
      Level shift parameter                  5.000E-01
      Make Quasi-Newton update
--

      The MO-coefficients are taken from the file:
      INPORB                                                                                                                                                                                                                                                          
      Title: RASSCF average (pseudo-natural) orbitals                                      

      Total molecular charge    0.00

      Molecular orbitals exchanged:
        In symmetry  3 :   6   7
        In symmetry  4 :   4   5


      ************************************************************************************************************************
      *                                                                                                                      *
      *                                            Wave function control section                                             *
      *                                                                                                                      *
      ************************************************************************************************************************


                                         RASSCF iterations: Energy and convergence statistics
                                         ----------------------------------------------------

      Iter CI   SX   CI       RASSCF       Energy    max ROT     max BLB   max BLB  Level Ln srch  Step   QN   Walltime
          iter iter root      energy       change     param      element    value   shift minimum  type update hh:mm:ss
 Nr of preliminary CI iterations:   5
 ###############################################################################
 ###############################################################################
 ###                                                                         ###
 ###                                                                         ###
 ###    WARNING: Large orbital rotation.                                     ###
 ###                                                                         ###
 ###                                                                         ###
 ###############################################################################
 ###############################################################################
      Molecular orbital   6 of symmetry 3 MO space 2  weight is    0.069349
 ###############################################################################
 ###############################################################################
 ###                                                                         ###
 ###                                                                         ###
 ###    WARNING: Large orbital rotation.                                     ###
 ###                                                                         ###
 ###                                                                         ###
 ###############################################################################
 ###############################################################################
      Molecular orbital   7 of symmetry 3 MO space 3  weight is    0.332007
 ###############################################################################
 ###############################################################################
 ###                                                                         ###
 ###                                                                         ###
 ###    WARNING: Large orbital rotation.                                     ###
 ###                                                                         ###
 ###                                                                         ###
 ###############################################################################
 ###############################################################################
      Molecular orbital   4 of symmetry 4 MO space 2  weight is    0.324647
 ###############################################################################
 ###############################################################################
 ###                                                                         ###
 ###                                                                         ###
 ###    WARNING: Large orbital rotation.                                     ###
 ###                                                                         ###
 ###                                                                         ###
 ###############################################################################
 ###############################################################################
      Molecular orbital   5 of symmetry 4 MO space 3  weight is    0.384149
        1   1   13    1  -229.46974122    0.00E+00  -8.17E-01*   5   7 3 -1.96E-02*  0.00   0.00    SX    NO    0:00:01
        2   5   38    1  -229.49916570   -2.94E-02* -4.61E-01*   5   7 3  9.09E-03*  0.00   0.00    SX    NO    0:00:00
        3   4    9    1  -229.52445442   -2.53E-02* -7.79E-02    4  12 2  8.29E-03*  0.00   0.00    SX    NO    0:00:00
        4   3    9    1  -229.52587980   -1.43E-03*  2.95E-02    3   5 1 -1.90E-03*  0.00   0.00    SX    NO    0:00:00
        5   4    9    1  -229.52624847   -3.69E-04*  2.89E-02    2   4 4 -1.66E-03*  0.00   2.11    LS   YES    0:00:00
        6   4    8    1  -229.52642276   -1.74E-04* -1.62E-02    2   4 4 -1.43E-03*  0.00   1.42    QN   YES    0:00:00
        7   4    8    1  -229.52646712   -4.44E-05*  4.05E-03    4  12 2 -4.23E-04*  0.00   1.22    QN   YES    0:00:00
        8   4    7    1  -229.52647118   -4.06E-06*  5.64E-04    3   6 2  1.17E-04*  0.00   1.13    QN   YES    0:00:00
        9   3    6    1  -229.52647143   -2.57E-07* -2.36E-04    5   7 3  4.14E-05   0.00   1.07    QN   YES    0:00:00
       10   2    6    1  -229.52647146   -2.39E-08* -1.35E-04    3   7 4 -1.17E-05   0.00   1.17    QN   YES    0:00:00
       11   2    5    1  -229.52647146   -4.86E-09   2.58E-05    3   8 1  6.23E-06   0.00   1.00    QN   YES    0:00:00
      Convergence after 11 iterations
       12   1    5    1  -229.52647146   -5.86E-10   2.58E-05    2   4 4 -2.76E-06   0.00   1.00    QN   YES    0:00:00

      ************************************************************************************************************************
                                                      Wave function printout:
                       occupation of active orbitals, and spin coupling of open shells (u,d: Spin up or down)
      ************************************************************************************************************************

      Note: transformation to natural orbitals
      has been made, which may change the order of the CSFs.

      printout of CI-coefficients larger than  0.05 for root  1
      energy=    -229.526471
      conf/sym  112334556778     Coeff  Weight
          5774  22 2 00 0 22 2 00 0   0.06751 0.00456
          5776  22 2 00 0 20 2 20 0  -0.46082 0.21235
          5792  22 2 00 0 2u d u0 d  -0.08341 0.00696
          5812  22 2 00 0 20 0 20 2   0.07171 0.00514
          5878  20 2 20 0 22 2 00 0  -0.08523 0.00726
          5880  20 2 20 0 20 2 20 0   0.79585 0.63337
          5885  20 2 20 0 ud 2 ud 0  -0.05569 0.00310
          5887  20 2 20 0 uu 2 dd 0   0.05529 0.00306
          5896  20 2 20 0 2u d u0 d   0.12209 0.01491
          5902  20 2 20 0 u0 d 2u d  -0.08163 0.00666
          5916  20 2 20 0 20 0 20 2  -0.11740 0.01378
          7024  u0 d 2u d 20 2 20 0   0.05373 0.00289
         10078  2u 2 d0 0 2u 2 d0 0  -0.07366 0.00543
         10650  20 u 20 d 20 u 20 d  -0.05340 0.00285
         17656  2u 2 u0 0 2d 2 d0 0   0.10952 0.01200

      Natural orbitals and occupation numbers for root  1
      sym 1:   1.974060   0.533528
      sym 2:   1.972162
      sym 3:   1.472384   0.022193
      sym 4:   0.024351
      sym 5:   1.959154   0.094352
      sym 6:   1.897550
      sym 7:   1.904616   0.038356
      sym 8:   0.107295

      ************************************************************************************************************************
      *                                                                                                                      *
      *                                                    Final results                                                     *
      *                                                                                                                      *
      ************************************************************************************************************************


++    Wave function specifications:
      -----------------------------

      Number of closed shell electrons          28
      Number of electrons in active shells      12
      Max number of holes in RAS1 space          0
      Max nr of electrons in RAS3 space          0
      Number of inactive orbitals               14
      Number of active orbitals                 12
      Number of secondary orbitals              72
      Spin quantum number                      0.0
      State symmetry                             1
--

++    Orbital specifications:
      -----------------------

      Symmetry species                           1   2   3   4   5   6   7   8
                                                ag b3u b2u b1g b1u b2g b3g  au
      Frozen orbitals                            0   0   0   0   0   0   0   0
      Inactive orbitals                          4   3   4   3   0   0   0   0
      Active orbitals                            2   1   2   1   2   1   2   1
      RAS1 orbitals                              0   0   0   0   0   0   0   0
      RAS2 orbitals                              2   1   2   1   2   1   2   1
      RAS3 orbitals                              0   0   0   0   0   0   0   0
      Secondary orbitals                        15  12  15  12   5   4   5   4
      Deleted orbitals                           0   0   0   0   0   0   0   0
      Number of basis functions                 21  16  21  16   7   5   7   5
--

++    CI expansion specifications:
      ----------------------------

      Number of CSFs                         28704
      Number of determinants                 54022
      Number of root(s) required                 1
      CI root used                               1
      highest root included in the CI            1
      Root passed to geometry opt.               1
--

++    Final optimization conditions:
      ------------------------------

      Average CI energy                            -229.52647146
      RASSCF energy for state  1                   -229.52647146
      Super-CI energy                                -0.00000000
      RASSCF energy change                            0.00000000
      Max change in MO coefficients               7.879E-05
      Max non-diagonal density matrix element     2.580E-05
      Maximum BLB matrix element                 -2.758E-06
      (orbital pair   2,   4 in symmetry   4)
      Norm of electronic gradient            9.070E-06
--


      Final state energy(ies):
      ------------------------

::    RASSCF root number  1 Total energy:   -229.52647146

++    Molecular orbitals:
      -------------------

      Pseudonatural active orbitals and approximate occupation numbers




      Molecular orbitals for symmetry species 1: ag 


      Orbital                 1         2         3         4         5         6
      Energy           -11.2336  -11.2227   -1.1143   -0.7538   -0.6859   -0.0039
      Occ. No.           2.0000    2.0000    2.0000    2.0000    1.9741    0.5335

     1 C1     1s         0.9895    0.1092   -0.1570   -0.0805    0.1020   -0.0041
     2 C1     2s         0.0274    0.0032    0.2933    0.1550   -0.2103    0.0087
     3 C1     *s        -0.0084   -0.0086    0.1753    0.1619   -0.1551   -0.0541
     4 C1     2px       -0.0001   -0.0005   -0.1500    0.3917   -0.0085   -0.0839
     5 C1     *px        0.0003    0.0041   -0.0170    0.1580    0.0103    0.0531
     6 C1     2py       -0.0005   -0.0013   -0.0987   -0.0764   -0.5129   -0.3118
     7 C1     *py        0.0006   -0.0002   -0.0468   -0.0574   -0.1960   -0.2318
     8 C1     *200      -0.0010    0.0001    0.0129    0.0077    0.0088    0.0219
     9 C1     *110       0.0001    0.0003    0.0054   -0.0121    0.0087   -0.0173
    10 C1     *020      -0.0015    0.0001    0.0023    0.0042   -0.0140   -0.0171
    11 C1     *002      -0.0015   -0.0000   -0.0084   -0.0034    0.0044   -0.0012
    12 C2     1s         0.1079   -0.9900   -0.1670    0.0628   -0.0765    0.0698
    13 C2     2s         0.0026   -0.0276    0.3202   -0.1236    0.1658   -0.1619
    14 C2     *s         0.0039    0.0161    0.2027   -0.0507    0.1822   -0.2723
    15 C2     2py       -0.0002   -0.0015    0.0953   -0.1108   -0.1151    0.5883
    16 C2     *py        0.0007    0.0037    0.0148   -0.0104   -0.0355    0.4563
    17 C2     *200      -0.0003    0.0007    0.0105    0.0021    0.0088    0.0157
    18 C2     *020      -0.0004    0.0014   -0.0030   -0.0053   -0.0106   -0.0140
    19 C2     *002      -0.0003    0.0014   -0.0074    0.0031   -0.0002    0.0006
    20 H3     1s        -0.0003    0.0001    0.0742    0.2781    0.0508    0.1061
    21 H3     *s         0.0021   -0.0006    0.0228    0.1442    0.0703    0.0998



      Molecular orbitals for symmetry species 2: b3u


      Orbital                 1         2         3         4
      Energy           -11.2335   -0.9260   -0.6307   -0.6319
      Occ. No.           2.0000    2.0000    2.0000    1.9722

     1 C1     1s         0.9955   -0.1887    0.0206    0.1134
     2 C1     2s         0.0280    0.3568   -0.0431   -0.2330
     3 C1     *s        -0.0092    0.3028   -0.0572   -0.1773
     4 C1     2px       -0.0002   -0.0026    0.4801    0.0208
     5 C1     *px        0.0010    0.0206    0.2030    0.0267
     6 C1     2py       -0.0004   -0.1696    0.0205   -0.5646
     7 C1     *py        0.0007   -0.1003   -0.0013   -0.2345
     8 C1     *200      -0.0011    0.0126    0.0107    0.0118
     9 C1     *110       0.0001    0.0003   -0.0173    0.0043
    10 C1     *020      -0.0015    0.0054   -0.0019   -0.0161
    11 C1     *002      -0.0015   -0.0092    0.0002    0.0037
    12 C2     2px       -0.0002    0.2849   -0.3251    0.1227
    13 C2     *px        0.0021    0.0322   -0.0626    0.0329
    14 C2     *110       0.0000    0.0135   -0.0271   -0.0128
    15 H3     1s        -0.0002    0.1847    0.2432    0.0818
    16 H3     *s         0.0017    0.0736    0.1727    0.1022



      Molecular orbitals for symmetry species 3: b2u


      Orbital                 1         2         3         4         5         6
      Energy           -11.2329  -11.2228   -1.0064   -0.6434   -0.2091   -0.0001
      Occ. No.           2.0000    2.0000    2.0000    2.0000    1.4724    0.0222

     1 C1     1s         0.9891    0.1163   -0.1514    0.0787   -0.0700    0.1347
     2 C1     2s         0.0280    0.0038    0.2962   -0.1557    0.1762   -0.6243
     3 C1     *s        -0.0219   -0.0180    0.1959   -0.1628    0.0851   -0.9848
     4 C1     2px       -0.0003   -0.0003   -0.1578   -0.3973   -0.1021   -0.0355
     5 C1     *px        0.0049    0.0081    0.0192   -0.2181    0.1576    0.1500
     6 C1     2py        0.0001   -0.0003   -0.1512    0.1017    0.0684   -1.0673
     7 C1     *py       -0.0037   -0.0021   -0.0288    0.0646    0.0593   -0.6105
     8 C1     *200      -0.0007    0.0002    0.0167   -0.0093    0.0154    0.0498
     9 C1     *110       0.0002    0.0002    0.0108    0.0343   -0.0116    0.0158
    10 C1     *020      -0.0008    0.0004   -0.0081    0.0004   -0.0172   -0.0093
    11 C1     *002      -0.0013    0.0000   -0.0065    0.0032    0.0005    0.0108
    12 C2     1s         0.1151   -0.9891   -0.1782   -0.0791    0.0801    0.0005
    13 C2     2s         0.0028   -0.0283    0.3419    0.1607   -0.1663   -0.0709
    14 C2     *s         0.0111    0.0229    0.2707    0.0803   -0.1185    0.1875
    15 C2     2py       -0.0002   -0.0016    0.1244    0.1043    0.5534    0.2699
    16 C2     *py        0.0034    0.0060    0.0536    0.0059    0.4986    0.2585
    17 C2     *200      -0.0005    0.0006    0.0116   -0.0028    0.0045    0.0313
    18 C2     *020      -0.0005    0.0014   -0.0033    0.0034    0.0024   -0.0253
    19 C2     *002      -0.0003    0.0013   -0.0077   -0.0027   -0.0022   -0.0009
    20 H3     1s         0.0003    0.0001   -0.0780    0.3180   -0.0416   -0.0286
    21 H3     *s        -0.0009    0.0013   -0.0045    0.1854    0.0248    0.0274



      Molecular orbitals for symmetry species 4: b1g


      Orbital                 1         2         3         4
      Energy           -11.2328   -0.8396   -0.5393    0.6811
      Occ. No.           2.0000    2.0000    2.0000    0.0244

     1 C1     1s         0.9958   -0.1831   -0.0019    0.1663
     2 C1     2s         0.0281    0.3640    0.0111   -0.6974
     3 C1     *s        -0.0169    0.3337   -0.0219   -0.8456
     4 C1     2px       -0.0003   -0.0311   -0.4757    0.0558
     5 C1     *px        0.0023    0.0472   -0.2353    0.0815
     6 C1     2py        0.0000   -0.2139   -0.0233   -1.0208
     7 C1     *py       -0.0020   -0.0938   -0.0077   -0.5051
     8 C1     *200      -0.0009    0.0149   -0.0120    0.0465
     9 C1     *110       0.0002    0.0028    0.0416    0.0192
    10 C1     *020      -0.0008   -0.0054    0.0010    0.0006
    11 C1     *002      -0.0014   -0.0074    0.0007    0.0094
    12 C2     2px       -0.0002    0.3174    0.3463    0.0643
    13 C2     *px        0.0025    0.0372    0.0962    0.0191
    14 C2     *110      -0.0001    0.0169    0.0255   -0.0274
    15 H3     1s         0.0002   -0.1796    0.2909   -0.0398
    16 H3     *s        -0.0015   -0.0452    0.2338   -0.0223



      Molecular orbitals for symmetry species 5: b1u


      Orbital                 1         2
      Energy            -0.5000    0.2159
      Occ. No.           1.9592    0.0944

     1 C1     2pz        0.4319   -0.4608
     2 C1     *pz        0.2678   -0.3764
     3 C1     *101      -0.0216   -0.0252
     4 C1     *011       0.0093   -0.0592
     5 C2     2pz        0.3169    0.6489
     6 C2     *pz        0.1682    0.4959
     7 C2     *011       0.0196   -0.0202



      Molecular orbitals for symmetry species 6: b2g


      Orbital                 1
      Energy            -0.3116
      Occ. No.           1.8976

     1 C1     2pz        0.5691
     2 C1     *pz        0.4568
     3 C1     *101      -0.0026
     4 C1     *011       0.0229
     5 C2     *101       0.0320



      Molecular orbitals for symmetry species 7: b3g


      Orbital                 1         2
      Energy            -0.3444    0.4579
      Occ. No.           1.9046    0.0384

     1 C1     2pz        0.3558   -0.8094
     2 C1     *pz        0.2605   -0.4294
     3 C1     *101      -0.0276   -0.0048
     4 C1     *011      -0.0240   -0.0343
     5 C2     2pz        0.4596    0.5495
     6 C2     *pz        0.3157    0.4047
     7 C2     *011       0.0169   -0.0262



      Molecular orbitals for symmetry species 8: au 


      Orbital                 1
      Energy             0.1494
      Occ. No.           0.1073

     1 C1     2pz        0.8102
     2 C1     *pz        0.4883
     3 C1     *101      -0.0181
     4 C1     *011      -0.0040
     5 C2     *101       0.0437
--

      Von Neumann Entropy (Root   1) =  1.73379


      Mulliken population analysis for root number:  1
      -----------------------------------------------


++    Molecular charges:
      ------------------

      Mulliken charges per centre and basis function type
      ---------------------------------------------------

                C1      C2      H3    
      1s       1.9966  1.9968  0.5230
      2s       0.6780  0.6896  0.0000
      2px      0.7598  0.7845  0.0000
      2pz      0.5624  0.5567  0.0000
      2py      0.6829  0.6010  0.0000
      *s       0.5151  0.4783  0.2591
      *px      0.2910  0.0794  0.0000
      *110     0.0140  0.0154  0.0000
      *020     0.0142 -0.0036  0.0000
      *002    -0.0182 -0.0155  0.0000
      *200     0.0367  0.0285  0.0000
      *pz      0.4496  0.3885  0.0000
      *py      0.2455  0.3497  0.0000
      *101     0.0046  0.0091  0.0000
      *011     0.0047  0.0037  0.0000
      Total    6.2369  5.9621  0.7820

      N-E     -0.2369  0.0379  0.2180

      Total electronic charge=   40.000000

      Total            charge=   -0.000000
--



      Expectation values of various properties for root number:  1
      -----------------------------------------------------------


++    Molecular properties:
      ---------------------

      Charge (e):
                      =   -0.0000
      Dipole Moment (Debye):
      Origin of the operator (Ang)=    0.0000    0.0000    0.0000
                   X=  0.0000E+00               Y=  0.0000E+00               Z=  0.0000E+00           Total=  0.0000E+00
      Quadrupole Moment (Debye*Ang):
      Origin of the operator (Ang)=    0.0000    0.0000    0.0000
                  XX= -2.6886E+01              XY=  0.0000E+00              XZ=  0.0000E+00              YY= -3.5955E+01
                  YZ=  0.0000E+00              ZZ= -3.7297E+01
      In traceless form (Debye*Ang)
                  XX=  9.7402E+00              XY=  0.0000E+00              XZ=  0.0000E+00              YY= -3.8642E+00
                  YZ=  0.0000E+00              ZZ= -5.8761E+00
--


      Input file to MOLDEN was generated!

      Average orbitals are written to the RASORB file
      Natural orbitals for root   1 are written to the RASORB.1 file
      Spin density orbitals for root   1 are written to the SPDORB.1 file

--- Stop Module: rasscf at Tue Jul  2 11:41:24 2024 /rc=_RC_ALL_IS_WELL_ ---
*** files: product2.rasscf.molden product2.RasOrb product2.RasOrb.1 product2.SpdOrb.1 xmldump
    saved to directory /home/kenya/molcas_test/0625_re
--- Module rasscf spent 7 seconds ---

*** symbolic link created: INPORB -> product2.RasOrb
--- Start Module: mckinley at Tue Jul  2 11:41:24 2024 ---

()()()()()()()()()()()()()()()()()()()()()()()()()()()()()()()()()()()()()()()()()()()()()()()()()()

                                             &MCKINLEY

                                   only a single process is used
                       available to each process: 2.0 GB of memory, 1 thread
                                            pid: 272442
()()()()()()()()()()()()()()()()()()()()()()()()()()()()()()()()()()()()()()()()()()()()()()()()()()


                     Threshold for contributions to the gradient or Hessian: 1.000E-07

 **************************************************************************************************************************
 *                                                                                                                        *
 *                 All data is written to disk, and could be accessed through the MCLR or RASSI program.                  *
 *                                                                                                                        *
 **************************************************************************************************************************
--- Stop Module: mckinley at Tue Jul  2 11:42:20 2024 /rc=_RC_INVOKED_OTHER_MODULE_ ---
*** files: xmldump
    saved to directory /home/kenya/molcas_test/0625_re
--- Module mckinley spent 56 seconds ---

*** symbolic link created: INPORB -> product2.RasOrb
--- Start Module: mclr at Tue Jul  2 11:42:20 2024 ---

()()()()()()()()()()()()()()()()()()()()()()()()()()()()()()()()()()()()()()()()()()()()()()()()()()

                                               &MCLR

                                   only a single process is used
                       available to each process: 2.0 GB of memory, 1 thread
                                            pid: 272535
()()()()()()()()()()()()()()()()()()()()()()()()()()()()()()()()()()()()()()()()()()()()()()()()()()

 Ordinary integral handling
 OrdInt status: non-squared

++   Wave function specifications:
     -----------------------------

     Number of closed shell electrons             28
     Number of electrons in active shells         12
     Max number of holes in RAS1 space             0
     Max number of electrons in RAS3 space         0
     Number of inactive orbitals                  14
     Number of active orbitals                    12
     Number of secondary orbitals                 72
     Spin quantum number                         0.0
     State symmetry                                1
     Number of CI roots                            1
     States considered                             1
     Weights                                   1.000

     Symmetry species                              1     2     3     4     5     6     7     8
     Skipped sym. species                          0     0     0     0     0     0     0     0
     Frozen orbitals                               0     0     0     0     0     0     0     0
     Inactive orbitals                             4     3     4     3     0     0     0     0
     Active orbitals                               2     1     2     1     2     1     2     1
     RAS1 orbitals                                 0     0     0     0     0     0     0     0
     RAS2 orbitals                                 2     1     2     1     2     1     2     1
     RAS3 orbitals                                 0     0     0     0     0     0     0     0
     Deleted orbitals                              0     0     0     0     0     0     0     0
     Number of basis functions                    21    16    21    16     7     5     7     5
     Number of orbitals                           21    16    21    16     7     5     7     5
     Number of configurations                  28704 28224 28304 28224 28304 28224 28304 28224
     Number of combinations                    54022 53312 53360 53312 53360 53312 53360 53312
     Natural orbitals are used in the last CI
     RASSCF state energy =           -229.5264714620
     Size of explicit Hamiltonian in PCG:        100
--

     Convergence threshold=               1.0000E-04
     Max number of iterations in PCG:            200

++   Perturbation specifications:
     ----------------------------

     Number of perturbations in each symmetry      5   6   6   5   4   2   3   2
     Type of perturbation:                         Hessian         
--

++   Perturbations:
     --------------

     -------------------------------------
      No.    Symmetry    Center Direction 
     -------------------------------------
       1       ag           C1         x
       2       ag           C1         y
       3       ag           C2         y
       4       ag           H3         x
       5       ag           H3         y
       6       b3u          C1         x
       7       b3u          C1         y
       8       b3u          C2         x
       9       b3u          H3         x
      10       b3u          H3         y
      11       b3u          MLTPL  1 X
      12       b2u          C1         x
      13       b2u          C1         y
      14       b2u          C2         y
      15       b2u          H3         x
      16       b2u          H3         y
      17       b2u          MLTPL  1 Y
      18       b1g          C1         x
      19       b1g          C1         y
      20       b1g          C2         x
      21       b1g          H3         x
      22       b1g          H3         y
      23       b1u          C1         z
      24       b1u          C2         z
      25       b1u          H3         z
      26       b1u          MLTPL  1 Z
      27       b2g          C1         z
      28       b2g          H3         z
      29       b3g          C1         z
      30       b3g          C2         z
      31       b3g          H3         z
      32       au           C1         z
      33       au           H3         z
     -------------------------------------
--


     Linear response function is computed for root no. =   1

 Process perturbation number                     1
      Perturbation no:    1 converged in   11 steps.

 Process perturbation number                     2
      Perturbation no:    2 converged in   13 steps.

 Process perturbation number                     3
      Perturbation no:    3 converged in   12 steps.

 Process perturbation number                     4
      Perturbation no:    4 converged in    9 steps.

 Process perturbation number                     5
      Perturbation no:    5 converged in   10 steps.

 Process perturbation number                     6
      Perturbation no:    6 converged in   11 steps.

 Process perturbation number                     7
      Perturbation no:    7 converged in   12 steps.

 Process perturbation number                     8
      Perturbation no:    8 converged in   12 steps.

 Process perturbation number                     9
      Perturbation no:    9 converged in    9 steps.

 Process perturbation number                    10
      Perturbation no:   10 converged in   10 steps.

 Process perturbation number                    11
      Perturbation no:   11 converged in   15 steps.

 Process perturbation number                    12
      Perturbation no:   12 converged in   10 steps.

 Process perturbation number                    13
      Perturbation no:   13 converged in   10 steps.

 Process perturbation number                    14
      Perturbation no:   14 converged in   11 steps.

 Process perturbation number                    15
      Perturbation no:   15 converged in    9 steps.

 Process perturbation number                    16
      Perturbation no:   16 converged in    9 steps.

 Process perturbation number                    17
      Perturbation no:   17 converged in   14 steps.

 Process perturbation number                    18
      Perturbation no:   18 converged in   10 steps.

 Process perturbation number                    19
      Perturbation no:   19 converged in   10 steps.

 Process perturbation number                    20
      Perturbation no:   20 converged in   11 steps.

 Process perturbation number                    21
      Perturbation no:   21 converged in    8 steps.

 Process perturbation number                    22
      Perturbation no:   22 converged in    8 steps.

 Process perturbation number                    23
      Perturbation no:   23 converged in   11 steps.

 Process perturbation number                    24
      Perturbation no:   24 converged in   11 steps.

 Process perturbation number                    25
      Perturbation no:   25 converged in   10 steps.

 Process perturbation number                    26
      Perturbation no:   26 converged in   12 steps.

 Process perturbation number                    27
      Perturbation no:   27 converged in   11 steps.

 Process perturbation number                    28
      Perturbation no:   28 converged in   10 steps.

 Process perturbation number                    29
      Perturbation no:   29 converged in   12 steps.

 Process perturbation number                    30
      Perturbation no:   30 converged in   11 steps.

 Process perturbation number                    31
      Perturbation no:   31 converged in   10 steps.

 Process perturbation number                    32
      Perturbation no:   32 converged in   11 steps.

 Process perturbation number                    33
      Perturbation no:   33 converged in    9 steps.


      ************************************
      *                                  *
      * Harmonic frequencies in cm-1     *
      * Intensities in km/mole           *
      *                                  *
      * No correction due to curvilinear *
      * representations has been done    *
      *                                  *
      ************************************


    Symmetry ag 
   ==============

                        1         2         3         4         5

     Frequency:       672.36    938.94   1261.61   1342.78   3419.04                                                    

     C1         x    0.21836   0.14220   0.06199   0.18774  -0.04191
     C1         y    0.05884  -0.30175   0.00164   0.16902   0.01584
     C2         y    0.45133  -0.10048  -0.01742  -0.26932   0.00383
     H3         x    0.05476   0.13330   0.25894  -0.02445   0.45402
     H3         y    0.30660   0.34046  -0.42303   0.38642   0.20457



    Symmetry b3u
   ==============

                        1         2         3         4         5

     Frequency:         0.09    833.71   1243.96   1604.05   3418.10                                                    

     Intensity:    8.575E-08 4.776E-01 1.181E+01 3.112E+00 1.067E+01
     Red. mass:      7.60312   6.87256   1.11969   6.61573   1.09507

     C1         x   -0.31623   0.00686   0.02930  -0.18853   0.04100
     C1         y    0.00000  -0.36497   0.03650  -0.00152  -0.01693
     C2         x   -0.31623  -0.01650  -0.02661   0.42895  -0.00577
     H3         x   -0.31623   0.01657  -0.19042  -0.30892  -0.45380
     H3         y    0.00000   0.34109   0.45956   0.16438  -0.20513



    Symmetry b2u
   ==============

                        1         2         3         4         5

     Frequency:         0.10    956.77   1176.85   1601.19   3403.80                                                    

     Intensity:    1.389E-08 3.115E+01 2.041E+01 1.374E+00 5.501E+00
     Red. mass:      7.60308   7.42854   1.45337   2.72840   1.09438

     C1         x   -0.00000  -0.20248  -0.09025  -0.14896  -0.04155
     C1         y   -0.31623   0.17057   0.00219  -0.09835   0.01538
     C2         y   -0.31623  -0.38972   0.06298   0.12059   0.00337
     H3         x    0.00000   0.14255   0.28111  -0.07472  -0.45468
     H3         y   -0.31623   0.28922  -0.40106   0.45308  -0.20321



    Symmetry b1g
   ==============

                        1         2         3         4         5

     Frequency:      i136.35    606.00   1368.84   1924.40   3405.26                                                    

     C1         x   -0.11366  -0.25531  -0.02187   0.24280   0.04143
     C1         y   -0.21149   0.23751  -0.03241   0.13027  -0.01540
     C2         x   -0.22268  -0.15955  -0.06903  -0.45387  -0.00575
     H3         x    0.18496   0.33524  -0.19835  -0.14486   0.45446
     H3         y   -0.36517   0.05738   0.45469  -0.22381   0.20371



    Symmetry b1u
   ==============

                        1         2         3

     Frequency:        i0.04    414.14    752.56                                                                        

     Intensity:    4.796E-09 4.312E+00 8.695E+01
     Red. mass:      7.60289   5.38466   1.18813

     C1         z    0.31622   0.15979  -0.05909
     C2         z    0.22361  -0.27205   0.02467
     H3         z    0.44723   0.54855   0.70128



    Symmetry b2g
   ==============

                        1         2

     Frequency:      i158.55    641.57                                                                                  

     C1         z   -0.26605   0.06623
     H3         z   -0.42334  -0.49559



    Symmetry b3g
   ==============

                        1         2         3

     Frequency:      i122.66    595.12    906.67                                                                        

     C1         z    0.18565   0.22576  -0.07632
     C2         z    0.30263  -0.17844  -0.00146
     H3         z   -0.49789  -0.57826  -0.69882



    Symmetry au 
   ==============

                        1         2

     Frequency:       430.19    940.90                                                                                  

     C1         z   -0.23470  -0.07802
     H3         z    0.44149  -0.49387



++ Thermochemistry

 *********************
 *                   *
 *  THERMOCHEMISTRY  *
 *                   *
 *********************

 Mass-centered Coordinates (Angstrom):
 ********************************************************
 Label        X           Y           Z          Mass  
 --------------------------------------------------------
 C1         0.000000   -0.744386    1.185670     12.00000
 C2         0.000000   -1.341865    0.000000     12.00000
 H3         0.000000    1.182247    2.164287      1.00783
 C1         0.000000   -0.744386   -1.185670     12.00000
 H3         0.000000    1.182247   -2.164287      1.00783
 C1         0.000000    0.744386    1.185670     12.00000
 C2         0.000000    1.341865    0.000000     12.00000
 H3         0.000000   -1.182247    2.164287      1.00783
 C1         0.000000    0.744386   -1.185670     12.00000
 H3         0.000000   -1.182247   -2.164287      1.00783
 --------------------------------------------------------
 Molecular mass:   76.031300
 Rotational Constants (cm-1):    0.1042    0.1952    0.2234
 Rotational Constants (GHz) :    3.1233    5.8519    6.6985
 Rotational temperatures (K):    0.1499    0.2808    0.3215
 Rotational Symmetry factor:  1
 Vibrational temperature (K): 
    967.38  1350.93  1815.17  1931.97  4919.23
   1199.53  1789.78  2307.87  4917.88  1376.58
   1693.23  2303.76  4897.31   871.89  1969.45
   2768.79  4899.41   595.85  1082.77   923.07
    856.24  1304.50   618.95  1353.75
 Number of trans. and rot. degrees of freedom:  6
 ZPVE                48.404 kcal/mol      0.077136 au.
 ZPVE corrected energy                 -229.449335 au.

 *****************************************************
 Temperature =     0.00 Kelvin, Pressure =   1.00 atm
 -----------------------------------------------------
 Molecular Partition Function and Molar Entropy:
                        q/V (M**-3)    S(kcal/mol*K)
 Electronic            1.000000E+00        0.000
 Translational         1.000000E+00        0.000
 Rotational            1.000000E+00        2.981
 Vibrational           1.000000E+00        0.000
 TOTAL                 1.000000E+00        2.981

 Thermal contributions to INTERNAL ENERGY:
 Electronic           0.000 kcal/mol      0.000000 au.
 Translational        0.000 kcal/mol      0.000000 au.
 Rotational           0.000 kcal/mol      0.000000 au.
 Vibrational         48.404 kcal/mol      0.077136 au.
 TOTAL               48.404 kcal/mol      0.077136 au.

 Thermal contributions to
 ENTHALPY            48.404 kcal/mol      0.077136 au.
 GIBBS FREE ENERGY   48.404 kcal/mol      0.077136 au.

 Sum of energy and thermal contributions
 INTERNAL ENERGY                       -229.449335 au.
 ENTHALPY                              -229.449335 au.
 GIBBS FREE ENERGY                     -229.449335 au.
 -----------------------------------------------------

 *****************************************************
 Temperature =   100.00 Kelvin, Pressure =   1.00 atm
 -----------------------------------------------------
 Molecular Partition Function and Molar Entropy:
                        q/V (M**-3)    S(kcal/mol*K)
 Electronic            1.000000E+00        0.000
 Translational         3.939934E+27       33.474
 Rotational            1.523602E+04       22.120
 Vibrational           1.653292-106        0.076
 TOTAL                 9.924531E-75       55.670

 Thermal contributions to INTERNAL ENERGY:
 Electronic           0.000 kcal/mol      0.000000 au.
 Translational        0.298 kcal/mol      0.000475 au.
 Rotational           0.298 kcal/mol      0.000475 au.
 Vibrational         48.410 kcal/mol      0.077147 au.
 TOTAL               49.006 kcal/mol      0.078097 au.

 Thermal contributions to
 ENTHALPY            49.205 kcal/mol      0.078413 au.
 GIBBS FREE ENERGY   43.638 kcal/mol      0.069542 au.

 Sum of energy and thermal contributions
 INTERNAL ENERGY                       -229.448375 au.
 ENTHALPY                              -229.448058 au.
 GIBBS FREE ENERGY                     -229.456930 au.
 -----------------------------------------------------

 *****************************************************
 Temperature =   273.15 Kelvin, Pressure =   1.00 atm
 -----------------------------------------------------
 Molecular Partition Function and Molar Entropy:
                        q/V (M**-3)    S(kcal/mol*K)
 Electronic            1.000000E+00        0.000
 Translational         1.778651E+28       38.466
 Rotational            6.878178E+04       25.116
 Vibrational           2.930254E-39        3.603
 TOTAL                 3.584836E-06       67.185

 Thermal contributions to INTERNAL ENERGY:
 Electronic           0.000 kcal/mol      0.000000 au.
 Translational        0.814 kcal/mol      0.001298 au.
 Rotational           0.814 kcal/mol      0.001298 au.
 Vibrational         49.145 kcal/mol      0.078318 au.
 TOTAL               50.773 kcal/mol      0.080913 au.

 Thermal contributions to
 ENTHALPY            51.316 kcal/mol      0.081778 au.
 GIBBS FREE ENERGY   32.965 kcal/mol      0.052532 au.

 Sum of energy and thermal contributions
 INTERNAL ENERGY                       -229.445559 au.
 ENTHALPY                              -229.444694 au.
 GIBBS FREE ENERGY                     -229.473939 au.
 -----------------------------------------------------

 *****************************************************
 Temperature =   298.15 Kelvin, Pressure =   1.00 atm
 -----------------------------------------------------
 Molecular Partition Function and Molar Entropy:
                        q/V (M**-3)    S(kcal/mol*K)
 Electronic            1.000000E+00        0.000
 Translational         2.028342E+28       38.901
 Rotational            7.843751E+04       25.377
 Vibrational           5.914257E-36        4.481
 TOTAL                 9.409469E-03       68.759

 Thermal contributions to INTERNAL ENERGY:
 Electronic           0.000 kcal/mol      0.000000 au.
 Translational        0.889 kcal/mol      0.001416 au.
 Rotational           0.889 kcal/mol      0.001416 au.
 Vibrational         49.396 kcal/mol      0.078717 au.
 TOTAL               51.173 kcal/mol      0.081550 au.

 Thermal contributions to
 ENTHALPY            51.766 kcal/mol      0.082494 au.
 GIBBS FREE ENERGY   31.265 kcal/mol      0.049824 au.

 Sum of energy and thermal contributions
 INTERNAL ENERGY                       -229.444922 au.
 ENTHALPY                              -229.443978 au.
 GIBBS FREE ENERGY                     -229.476647 au.
 -----------------------------------------------------

 *****************************************************
 Temperature =   323.15 Kelvin, Pressure =   1.00 atm
 -----------------------------------------------------
 Molecular Partition Function and Molar Entropy:
                        q/V (M**-3)    S(kcal/mol*K)
 Electronic            1.000000E+00        0.000
 Translational         2.288733E+28       39.301
 Rotational            8.850704E+04       25.617
 Vibrational           3.809164E-33        5.412
 TOTAL                 7.716186E+00       70.330

 Thermal contributions to INTERNAL ENERGY:
 Electronic           0.000 kcal/mol      0.000000 au.
 Translational        0.963 kcal/mol      0.001535 au.
 Rotational           0.963 kcal/mol      0.001535 au.
 Vibrational         49.685 kcal/mol      0.079178 au.
 TOTAL               51.612 kcal/mol      0.082248 au.

 Thermal contributions to
 ENTHALPY            52.254 kcal/mol      0.083272 au.
 GIBBS FREE ENERGY   29.527 kcal/mol      0.047054 au.

 Sum of energy and thermal contributions
 INTERNAL ENERGY                       -229.444223 au.
 ENTHALPY                              -229.443200 au.
 GIBBS FREE ENERGY                     -229.479418 au.
 -----------------------------------------------------

 *****************************************************
 Temperature =   373.15 Kelvin, Pressure =   1.00 atm
 -----------------------------------------------------
 Molecular Partition Function and Molar Entropy:
                        q/V (M**-3)    S(kcal/mol*K)
 Electronic            1.000000E+00        0.000
 Translational         2.839972E+28       40.016
 Rotational            1.098239E+05       26.046
 Vibrational           1.294169E-28        7.394
 TOTAL                 4.036470E+05       73.455

 Thermal contributions to INTERNAL ENERGY:
 Electronic           0.000 kcal/mol      0.000000 au.
 Translational        1.112 kcal/mol      0.001773 au.
 Rotational           1.112 kcal/mol      0.001773 au.
 Vibrational         50.376 kcal/mol      0.080279 au.
 TOTAL               52.600 kcal/mol      0.083824 au.

 Thermal contributions to
 ENTHALPY            53.342 kcal/mol      0.085005 au.
 GIBBS FREE ENERGY   25.932 kcal/mol      0.041325 au.

 Sum of energy and thermal contributions
 INTERNAL ENERGY                       -229.442648 au.
 ENTHALPY                              -229.441466 au.
 GIBBS FREE ENERGY                     -229.485146 au.
 -----------------------------------------------------

 *****************************************************
 Temperature =   473.15 Kelvin, Pressure =   1.00 atm
 -----------------------------------------------------
 Molecular Partition Function and Molar Entropy:
                        q/V (M**-3)    S(kcal/mol*K)
 Electronic            1.000000E+00        0.000
 Translational         4.054966E+28       41.195
 Rotational            1.568086E+05       26.753
 Vibrational           2.780907E-22       11.608
 TOTAL                 1.768249E+12       79.557

 Thermal contributions to INTERNAL ENERGY:
 Electronic           0.000 kcal/mol      0.000000 au.
 Translational        1.410 kcal/mol      0.002248 au.
 Rotational           1.410 kcal/mol      0.002248 au.
 Vibrational         52.160 kcal/mol      0.083123 au.
 TOTAL               54.981 kcal/mol      0.087618 au.

 Thermal contributions to
 ENTHALPY            55.921 kcal/mol      0.089117 au.
 GIBBS FREE ENERGY   18.279 kcal/mol      0.029130 au.

 Sum of energy and thermal contributions
 INTERNAL ENERGY                       -229.438853 au.
 ENTHALPY                              -229.437355 au.
 GIBBS FREE ENERGY                     -229.497342 au.
 -----------------------------------------------------
--


 ************************************
 *                                  *
 *       Polarizabilities           *
 *                                  *
 ************************************



       65.1060983889246074
       -0.0000000000000000     59.9251593923916559
       -0.0000000000000000     -0.0000000000000000     20.2348965224652133

++    Isotopic shifts:
      ----------------



 ****************************************
 *                                      *
 * Isotope shifted frequencies in cm-1  *
 *                                      *
 ****************************************


  Single substitutions:
  -----------------------

 Masses:
 =======
  13  12  12  12  12  12   1   1   1   1


 Frequencies:
 ============
                         1         2         3         4         5         6

            Freq.    i157.24   i135.52   i122.33     i0.04      0.09      0.10                                               


                         7         8         9        10        11        12

            Freq.     412.95    427.06    592.01    600.60    640.53    670.20                                               


                        13        14        15        16        17        18

            Freq.     751.54    825.49    904.67    930.31    938.97    953.75                                               


                        19        20        21        22        23        24

            Freq.    1173.53   1242.65   1259.65   1335.13   1368.18   1590.21                                               


                        25        26        27        28        29        30

            Freq.    1602.51   1917.12   3396.85   3404.59   3414.82   3418.61                                               


 Masses:
 =======
  14  12  12  12  12  12   1   1   1   1


 Frequencies:
 ============
                         1         2         3         4         5         6

            Freq.    i156.04   i134.73   i122.00     i0.04      0.09      0.10                                               


                         7         8         9        10        11        12

            Freq.     411.32    424.65    589.24    595.14    639.73    668.17                                               


                        13        14        15        16        17        18

            Freq.     750.69    817.26    902.84    922.66    937.55    952.18                                               


                        19        20        21        22        23        24

            Freq.    1170.16   1241.15   1257.92   1328.27   1367.79   1580.57                                               


                        25        26        27        28        29        30

            Freq.    1601.75   1911.40   3388.56   3404.55   3413.62   3418.60                                               


 Masses:
 =======
  12  12  12  12  13  12   1   1   1   1


 Frequencies:
 ============
                         1         2         3         4         5         6

            Freq.    i158.55   i135.63   i121.00     i0.04      0.09      0.10                                               


                         7         8         9        10        11        12

            Freq.     408.68    430.19    591.41    604.90    641.57    663.53                                               


                        13        14        15        16        17        18

            Freq.     752.21    833.70    906.67    937.54    940.90    948.20                                               


                        19        20        21        22        23        24

            Freq.    1175.34   1243.54   1261.45   1334.62   1365.88   1582.07                                               


                        25        26        27        28        29        30

            Freq.    1597.43   1904.93   3403.79   3405.21   3418.05   3419.02                                               


 Masses:
 =======
  12  12  12  12  14  12   1   1   1   1


 Frequencies:
 ============
                         1         2         3         4         5         6

            Freq.    i158.55   i134.95   i119.46     i0.04      0.09      0.10                                               


                         7         8         9        10        11        12

            Freq.     403.72    430.19    588.35    603.84    641.57    654.86                                               


                        13        14        15        16        17        18

            Freq.     751.93    833.68    906.67    933.52    940.90    943.44                                               


                        19        20        21        22        23        24

            Freq.    1174.02   1243.09   1261.29   1327.95   1362.54   1561.36                                               


                        25        26        27        28        29        30

            Freq.    1594.48   1890.22   3403.77   3405.18   3418.01   3419.00                                               


 Masses:
 =======
  12  12  12  12  12  12   2   1   1   1


 Frequencies:
 ============
                         1         2         3         4         5         6

            Freq.    i155.51   i133.99   i121.48     i0.04      0.09      0.10                                               


                         7         8         9        10        11        12

            Freq.     399.56    421.93    552.77    600.68    605.20    666.62                                               


                        13        14        15        16        17        18

            Freq.     713.09    818.15    858.18    907.47    927.52    950.40                                               


                        19        20        21        22        23        24

            Freq.     972.53   1196.57   1252.05   1329.29   1348.94   1579.81                                               


                        25        26        27        28        29        30

            Freq.    1595.02   1915.96   2528.82   3404.49   3411.61   3418.58                                               


 Masses:
 =======
  12  12  12  12  12  12   3   1   1   1


 Frequencies:
 ============
                         1         2         3         4         5         6

            Freq.    i153.14   i131.85   i120.30     i0.04      0.09      0.10                                               


                         7         8         9        10        11        12

            Freq.     373.30    420.12    515.18    594.93    602.63    654.40                                               


                        13        14        15        16        17        18

            Freq.     704.92    759.79    848.68    856.06    926.80    933.70                                               


                        19        20        21        22        23        24

            Freq.     952.71   1192.63   1250.36   1323.81   1347.79   1568.27                                               


                        25        26        27        28        29        30

            Freq.    1587.87   1899.41   2185.58   3404.49   3411.60   3418.58                                               



  Full substitutions:
  -----------------------

 Masses:
 =======
  12  12  12  12  12  12   2   2   2   2


 Frequencies:
 ============
                         1         2         3         4         5         6

            Freq.    i146.69   i127.45   i118.31     i0.04      0.09      0.10                                               


                         7         8         9        10        11        12

            Freq.     381.79    386.35    490.51    538.16    585.54    586.06                                               


                        13        14        15        16        17        18

            Freq.     649.11    735.29    749.96    778.64    867.79    876.82                                               


                        19        20        21        22        23        24

            Freq.     946.08    952.76    970.38   1039.33   1321.89   1495.14                                               


                        25        26        27        28        29        30

            Freq.    1565.65   1889.30   2522.72   2528.61   2531.45   2532.27                                               


 Masses:
 =======
  12  12  12  12  12  12   3   3   3   3


 Frequencies:
 ============
                         1         2         3         4         5         6

            Freq.    i137.70   i120.20   i114.53     i0.04      0.09      0.10                                               


                         7         8         9        10        11        12

            Freq.     340.71    355.47    427.03    480.06    532.92    567.28                                               


                        13        14        15        16        17        18

            Freq.     608.81    680.13    686.75    695.82    743.91    773.74                                               


                        19        20        21        22        23        24

            Freq.     883.31    901.87    913.08    921.15   1307.71   1447.71                                               


                        25        26        27        28        29        30

            Freq.    1526.72   1823.12   2172.34   2173.51   2178.30   2209.03                                               


 Masses:
 =======
  13  13  13  13  13  13   1   1   1   1


 Frequencies:
 ============
                         1         2         3         4         5         6

            Freq.    i153.36   i131.73   i118.18     i0.04      0.09      0.10                                               


                         7         8         9        10        11        12

            Freq.     399.54    416.91    574.79    583.67    637.19    647.13                                               


                        13        14        15        16        17        18

            Freq.     747.83    802.93    899.13    904.98    921.07    932.68                                               


                        19        20        21        22        23        24

            Freq.    1160.09   1238.41   1249.48   1300.08   1360.32   1545.92                                               


                        25        26        27        28        29        30

            Freq.    1559.07   1851.04   3392.55   3394.01   3406.69   3407.46                                               


 Masses:
 =======
  14  14  14  14  14  14   1   1   1   1


 Frequencies:
 ============
                         1         2         3         4         5         6

            Freq.    i148.66   i127.56   i114.17     i0.04      0.09      0.10                                               


                         7         8         9        10        11        12

            Freq.     386.36    404.72    556.29    563.69    624.57    633.41                                               


                        13        14        15        16        17        18

            Freq.     743.90    775.28    874.43    889.10    892.97    925.82                                               


                        19        20        21        22        23        24

            Freq.    1142.77   1223.65   1232.82   1277.49   1352.84   1495.09                                               


                        25        26        27        28        29        30

            Freq.    1524.10   1785.86   3383.09   3384.54   3397.05   3397.68                                               


--


      The response parameters are written to the file RESP.
--- Stop Module: mclr at Tue Jul  2 11:44:31 2024 /rc=_RC_ALL_IS_WELL_ ---
*** files: product2.freq.molden product2.UnSym xmldump
    saved to directory /home/kenya/molcas_test/0625_re
--- Module mclr spent 2 minutes 11 seconds ---

*** symbolic link created: INPORB -> product2.RasOrb
--- Start Module: alaska at Tue Jul  2 11:44:31 2024 ---

()()()()()()()()()()()()()()()()()()()()()()()()()()()()()()()()()()()()()()()()()()()()()()()()()()

                                              &ALASKA

                                   only a single process is used
                       available to each process: 2.0 GB of memory, 1 thread
                                            pid: 272718
()()()()()()()()()()()()()()()()()()()()()()()()()()()()()()()()()()()()()()()()()()()()()()()()()()


                     Threshold for contributions to the gradient: 1.000E-07


                    ********************************************
                    * Symmetry Adapted Cartesian Displacements *
                    ********************************************


           Irreducible representation : ag 
           Basis function(s) of irrep:                                                                                 

 Basis Label        Type   Center Phase
   1   C1           x         1     1      2    -1      3     1      4    -1
   2   C1           y         1     1      2     1      3    -1      4    -1
[...]
 ###############################################################################
      Molecular orbital   6 of symmetry 3 MO space 2  weight is    0.053009
 ###############################################################################
 ###############################################################################
 ###                                                                         ###
 ###                                                                         ###
 ###    WARNING: Large orbital rotation.                                     ###
 ###                                                                         ###
 ###                                                                         ###
 ###############################################################################
 ###############################################################################
      Molecular orbital   7 of symmetry 3 MO space 3  weight is    0.488270
 ###############################################################################
 ###############################################################################
 ###                                                                         ###
 ###                                                                         ###
 ###    WARNING: Large orbital rotation.                                     ###
 ###                                                                         ###
 ###                                                                         ###
 ###############################################################################
 ###############################################################################
      Molecular orbital   4 of symmetry 4 MO space 2  weight is    0.360863
 ###############################################################################
 ###############################################################################
 ###                                                                         ###
 ###                                                                         ###
 ###    WARNING: Large orbital rotation.                                     ###
 ###                                                                         ###
 ###                                                                         ###
 ###############################################################################
 ###############################################################################
      Molecular orbital   5 of symmetry 4 MO space 3  weight is    0.400150
        1   1   12    1  -229.48475114    0.00E+00   7.74E-01*   5   7 3 -1.47E-02*  0.00   0.00    SX    NO    0:00:00
        2   4   17    1  -229.50796643   -2.32E-02* -5.21E-01*   4   5 4  8.98E-03*  0.00   0.00    SX    NO    0:00:00
        3   5    9    1  -229.53538781   -2.74E-02* -9.09E-02    4  14 2  9.52E-03*  0.00   0.00    SX    NO    0:00:00
        4   3    9    1  -229.53729692   -1.91E-03* -3.30E-02    2   4 4 -2.05E-03*  0.00   0.00    SX    NO    0:00:00
        5   4    9    1  -229.53775317   -4.56E-04* -3.20E-02    2   4 4 -1.63E-03*  0.00   2.12    LS   YES    0:00:00
        6   4    8    1  -229.53795502   -2.02E-04*  1.70E-02    2   4 4 -1.21E-03*  0.00   1.33    QN   YES    0:00:00
        7   4    8    1  -229.53800321   -4.82E-05*  6.71E-03    4  12 2 -3.76E-04*  0.00   1.22    QN   YES    0:00:00
        8   4    7    1  -229.53800841   -5.21E-06* -1.06E-03    5   8 1 -1.35E-04*  0.00   1.05    QN   YES    0:00:00
        9   3    7    1  -229.53800872   -3.09E-07*  2.74E-04    5   7 3  6.21E-05   0.00   1.00    QN   YES    0:00:00
       10   3    6    1  -229.53800875   -2.98E-08*  6.83E-05    3   7 4 -1.51E-05   0.00   1.11    QN   YES    0:00:00
       11   1    5    1  -229.53800875   -2.94E-09  -2.01E-05    1   4 7 -3.31E-06   0.00   0.97    QN   YES    0:00:00
      Convergence after 11 iterations
       12   1    5    1  -229.53800875   -1.87E-10  -2.01E-05    5  12 1 -8.51E-07   0.00   0.97    QN   YES    0:00:00

      ************************************************************************************************************************
                                                      Wave function printout:
                       occupation of active orbitals, and spin coupling of open shells (u,d: Spin up or down)
      ************************************************************************************************************************

      Note: transformation to natural orbitals
      has been made, which may change the order of the CSFs.

      printout of CI-coefficients larger than  0.05 for root  1
      energy=    -229.538009
      conf/sym  112334556778     Coeff  Weight
          5774  22 2 00 0 22 2 00 0   0.09156 0.00838
          5776  22 2 00 0 20 2 20 0  -0.53019 0.28110
          5792  22 2 00 0 2u d u0 d  -0.09719 0.00945
          5798  22 2 00 0 u0 d 2u d   0.05580 0.00311
          5812  22 2 00 0 20 0 20 2   0.07595 0.00577
          5878  20 2 20 0 22 2 00 0  -0.10390 0.01080
          5880  20 2 20 0 20 2 20 0   0.74574 0.55613
          5885  20 2 20 0 ud 2 ud 0  -0.05969 0.00356
          5887  20 2 20 0 uu 2 dd 0   0.05550 0.00308
          5896  20 2 20 0 2u d u0 d   0.12160 0.01479
          5902  20 2 20 0 u0 d 2u d  -0.07970 0.00635
          5916  20 2 20 0 20 0 20 2  -0.10303 0.01062
         10078  2u 2 d0 0 2u 2 d0 0  -0.05422 0.00294
         17656  2u 2 u0 0 2d 2 d0 0   0.14441 0.02085

      Natural orbitals and occupation numbers for root  1
      sym 1:   1.977044   0.695923
      sym 2:   1.976916
      sym 3:   1.308237   0.019980
      sym 4:   0.021042
      sym 5:   1.955955   0.119516
      sym 6:   1.902068
      sym 7:   1.880442   0.041737
      sym 8:   0.101140

      ************************************************************************************************************************
      *                                                                                                                      *
      *                                                    Final results                                                     *
      *                                                                                                                      *
      ************************************************************************************************************************


++    Wave function specifications:
      -----------------------------

      Number of closed shell electrons          28
      Number of electrons in active shells      12
      Max number of holes in RAS1 space          0
      Max nr of electrons in RAS3 space          0
      Number of inactive orbitals               14
      Number of active orbitals                 12
      Number of secondary orbitals              72
      Spin quantum number                      0.0
      State symmetry                             1
--

++    Orbital specifications:
      -----------------------

      Symmetry species                           1   2   3   4   5   6   7   8
                                                ag b3u b2u b1g b1u b2g b3g  au
      Frozen orbitals                            0   0   0   0   0   0   0   0
      Inactive orbitals                          4   3   4   3   0   0   0   0
      Active orbitals                            2   1   2   1   2   1   2   1
      RAS1 orbitals                              0   0   0   0   0   0   0   0
      RAS2 orbitals                              2   1   2   1   2   1   2   1
      RAS3 orbitals                              0   0   0   0   0   0   0   0
      Secondary orbitals                        15  12  15  12   5   4   5   4
      Deleted orbitals                           0   0   0   0   0   0   0   0
      Number of basis functions                 21  16  21  16   7   5   7   5
--

++    CI expansion specifications:
      ----------------------------

      Number of CSFs                         28704
      Number of determinants                 54022
      Number of root(s) required                 1
      CI root used                               1
      highest root included in the CI            1
      Root passed to geometry opt.               1
--

++    Final optimization conditions:
      ------------------------------

      Average CI energy                            -229.53800875
      RASSCF energy for state  1                   -229.53800875
      Super-CI energy                                -0.00000000
      RASSCF energy change                            0.00000000
      Max change in MO coefficients               4.696E-05
      Max non-diagonal density matrix element    -2.006E-05
      Maximum BLB matrix element                 -8.514E-07
      (orbital pair   5,  12 in symmetry   1)
      Norm of electronic gradient            3.630E-06
--


      Final state energy(ies):
      ------------------------

::    RASSCF root number  1 Total energy:   -229.53800875

++    Molecular orbitals:
      -------------------

      Pseudonatural active orbitals and approximate occupation numbers




      Molecular orbitals for symmetry species 1: ag 


      Orbital                 1         2         3         4         5         6
      Energy           -11.2366  -11.2347   -1.0897   -0.7417   -0.7143   -0.0035
      Occ. No.           2.0000    2.0000    2.0000    2.0000    1.9770    0.6959

     1 C1     1s         0.6505    0.7536   -0.1508   -0.0791    0.1177   -0.0054
     2 C1     2s         0.0179    0.0209    0.2829    0.1526   -0.2428    0.0108
     3 C1     *s        -0.0010   -0.0113    0.1702    0.1662   -0.1684   -0.0238
     4 C1     2px        0.0002   -0.0003   -0.1462    0.3875   -0.0172   -0.0912
     5 C1     *px       -0.0021    0.0030   -0.0186    0.1517    0.0046    0.0222
     6 C1     2py        0.0004   -0.0009   -0.1170   -0.1001   -0.5207   -0.2790
     7 C1     *py        0.0006    0.0004   -0.0569   -0.0683   -0.1860   -0.2010
     8 C1     *200      -0.0009   -0.0006    0.0127    0.0061    0.0112    0.0193
     9 C1     *110      -0.0002    0.0003    0.0044   -0.0146    0.0064   -0.0186
    10 C1     *020      -0.0011   -0.0009    0.0025    0.0047   -0.0146   -0.0140
    11 C1     *002      -0.0011   -0.0010   -0.0081   -0.0034    0.0049   -0.0017
    12 C2     1s         0.7531   -0.6516   -0.1636    0.0616   -0.0711    0.0825
    13 C2     2s         0.0204   -0.0180    0.3182   -0.1238    0.1554   -0.1862
    14 C2     *s        -0.0071    0.0134    0.2154   -0.0763    0.1681   -0.3298
    15 C2     2py        0.0007   -0.0010    0.1018   -0.1066   -0.0794    0.5703
    16 C2     *py       -0.0016    0.0031    0.0255   -0.0147   -0.0180    0.4374
    17 C2     *200      -0.0008    0.0003    0.0110    0.0026    0.0068    0.0152
    18 C2     *020      -0.0011    0.0007   -0.0025   -0.0052   -0.0091   -0.0114
    19 C2     *002      -0.0011    0.0008   -0.0073    0.0028   -0.0004    0.0002
    20 H3     1s        -0.0002   -0.0001    0.0810    0.2795    0.0549    0.0994
    21 H3     *s         0.0019    0.0010    0.0275    0.1506    0.0745    0.0983



      Molecular orbitals for symmetry species 2: b3u


      Orbital                 1         2         3         4
      Energy           -11.2356   -0.9050   -0.6116   -0.6813
      Occ. No.           2.0000    2.0000    2.0000    1.9769

     1 C1     1s         0.9955   -0.1806    0.0210    0.1274
     2 C1     2s         0.0279    0.3430   -0.0453   -0.2610
     3 C1     *s        -0.0089    0.2929   -0.0532   -0.1855
     4 C1     2px       -0.0002    0.0043    0.4820    0.0071
     5 C1     *px        0.0010    0.0171    0.2077    0.0166
     6 C1     2py       -0.0003   -0.1960    0.0105   -0.5556
     7 C1     *py        0.0008   -0.1112   -0.0030   -0.2087
     8 C1     *200      -0.0012    0.0119    0.0081    0.0123
     9 C1     *110       0.0000   -0.0024   -0.0182    0.0026
    10 C1     *020      -0.0014    0.0058   -0.0013   -0.0156
    11 C1     *002      -0.0014   -0.0089    0.0002    0.0046
    12 C2     2px       -0.0002    0.2771   -0.3233    0.1149
    13 C2     *px        0.0019    0.0415   -0.0791    0.0407
    14 C2     *110      -0.0001    0.0146   -0.0265   -0.0106
    15 H3     1s        -0.0002    0.1944    0.2373    0.0756
    16 H3     *s         0.0016    0.0816    0.1722    0.0933



      Molecular orbitals for symmetry species 3: b2u


      Orbital                 1         2         3         4         5         6
      Energy           -11.2363  -11.2342   -0.9867   -0.6355   -0.1907    0.0001
      Occ. No.           2.0000    2.0000    2.0000    2.0000    1.3082    0.0200

     1 C1     1s         0.4680    0.8791   -0.1480    0.0756   -0.0677    0.1504
     2 C1     2s         0.0129    0.0251    0.2897   -0.1499    0.1698   -0.7268
     3 C1     *s         0.0019   -0.0275    0.2057   -0.1504    0.0880   -1.0297
     4 C1     2px        0.0001   -0.0004   -0.1420   -0.3889   -0.1089   -0.0542
     5 C1     *px       -0.0038    0.0081    0.0098   -0.2204    0.1175    0.1566
     6 C1     2py        0.0003    0.0001   -0.1617    0.1109    0.0313   -1.0929
     7 C1     *py       -0.0003   -0.0045   -0.0386    0.0747    0.0057   -0.5757
     8 C1     *200      -0.0006   -0.0005    0.0164   -0.0070    0.0132    0.0624
     9 C1     *110      -0.0001    0.0003    0.0096    0.0384   -0.0090    0.0086
    10 C1     *020      -0.0007   -0.0004   -0.0064   -0.0015   -0.0153   -0.0098
    11 C1     *002      -0.0007   -0.0010   -0.0064    0.0033    0.0003    0.0146
    12 C2     1s         0.8786   -0.4688   -0.1719   -0.0852    0.0867   -0.0042
    13 C2     2s         0.0244   -0.0134    0.3346    0.1759   -0.1854   -0.0518
    14 C2     *s        -0.0118    0.0198    0.2640    0.1138   -0.1975    0.2108
    15 C2     2py        0.0010   -0.0008    0.1258    0.1047    0.5568    0.2261
    16 C2     *py       -0.0028    0.0058    0.0565    0.0127    0.4843    0.2343
    17 C2     *200      -0.0009   -0.0001    0.0119   -0.0027    0.0083    0.0243
    18 C2     *020      -0.0013    0.0003   -0.0027    0.0029   -0.0002   -0.0189
    19 C2     *002      -0.0012    0.0005   -0.0074   -0.0026   -0.0016   -0.0035
    20 H3     1s         0.0000    0.0003   -0.0886    0.3150   -0.0311   -0.0394
    21 H3     *s        -0.0016   -0.0001   -0.0112    0.1865    0.0362    0.0158



      Molecular orbitals for symmetry species 4: b1g


      Orbital                 1         2         3         4
      Energy           -11.2346   -0.8306   -0.5163    0.7538
      Occ. No.           2.0000    2.0000    2.0000    0.0210

     1 C1     1s         0.9958   -0.1779   -0.0075    0.1731
     2 C1     2s         0.0280    0.3532    0.0227   -0.7866
     3 C1     *s        -0.0166    0.3296    0.0139   -0.8380
     4 C1     2px       -0.0003   -0.0128   -0.4700    0.0180
     5 C1     *px        0.0020    0.0410   -0.2632    0.0785
     6 C1     2py        0.0002   -0.2230   -0.0205   -1.0549
     7 C1     *py       -0.0022   -0.1002   -0.0100   -0.4726
     8 C1     *200      -0.0009    0.0144   -0.0085    0.0603
     9 C1     *110       0.0002   -0.0014    0.0451    0.0103
    10 C1     *020      -0.0007   -0.0031   -0.0002   -0.0032
    11 C1     *002      -0.0013   -0.0073    0.0007    0.0139
    12 C2     2px       -0.0002    0.2963    0.3595    0.0648
    13 C2     *px        0.0021    0.0414    0.1033    0.0115
    14 C2     *110      -0.0002    0.0178    0.0250   -0.0193
    15 H3     1s         0.0002   -0.1930    0.2818   -0.0493
    16 H3     *s        -0.0015   -0.0572    0.2329   -0.0265



      Molecular orbitals for symmetry species 5: b1u


      Orbital                 1         2
      Energy            -0.4910    0.1828
      Occ. No.           1.9560    0.1195

     1 C1     2pz        0.4381   -0.4341
     2 C1     *pz        0.2755   -0.3645
     3 C1     *101      -0.0198   -0.0235
     4 C1     *011       0.0115   -0.0523
     5 C2     2pz        0.3034    0.6414
     6 C2     *pz        0.1699    0.4970
     7 C2     *011       0.0187   -0.0207



      Molecular orbitals for symmetry species 6: b2g


      Orbital                 1
      Energy            -0.3215
      Occ. No.           1.9021

     1 C1     2pz        0.5694
     2 C1     *pz        0.4461
     3 C1     *101      -0.0027
     4 C1     *011       0.0246
     5 C2     *101       0.0295



      Molecular orbitals for symmetry species 7: b3g


      Orbital                 1         2
      Energy            -0.3244    0.4385
      Occ. No.           1.8804    0.0417

     1 C1     2pz        0.3381   -0.8132
     2 C1     *pz        0.2638   -0.4396
     3 C1     *101      -0.0261   -0.0050
     4 C1     *011      -0.0243   -0.0318
     5 C2     2pz        0.4659    0.5226
     6 C2     *pz        0.3373    0.3898
     7 C2     *011       0.0153   -0.0241



      Molecular orbitals for symmetry species 8: au 


      Orbital                 1
      Energy             0.1650
      Occ. No.           0.1011

     1 C1     2pz        0.8176
     2 C1     *pz        0.4968
     3 C1     *101      -0.0162
     4 C1     *011      -0.0023
     5 C2     *101       0.0395
--

      Von Neumann Entropy (Root   1) =  1.86009


      Mulliken population analysis for root number:  1
      -----------------------------------------------


++    Molecular charges:
      ------------------

      Mulliken charges per centre and basis function type
      ---------------------------------------------------

                C1      C2      H3    
      1s       1.9966  1.9968  0.5246
      2s       0.6746  0.6864  0.0000
      2px      0.7409  0.7602  0.0000
      2pz      0.5577  0.5485  0.0000
      2py      0.7044  0.5832  0.0000
      *s       0.5163  0.5206  0.2636
      *px      0.2949  0.1011  0.0000
      *110     0.0158  0.0149  0.0000
      *020     0.0176 -0.0012  0.0000
      *002    -0.0182 -0.0151  0.0000
      *200     0.0307  0.0261  0.0000
      *pz      0.4507  0.4060  0.0000
      *py      0.2327  0.3375  0.0000
      *101     0.0039  0.0075  0.0000
      *011     0.0053  0.0033  0.0000
      Total    6.2240  5.9758  0.7881

      N-E     -0.2240  0.0242  0.2119

      Total electronic charge=   40.000000

      Total            charge=   -0.000000
--



      Expectation values of various properties for root number:  1
      -----------------------------------------------------------


++    Molecular properties:
      ---------------------

      Charge (e):
                      =   -0.0000
      Dipole Moment (Debye):
      Origin of the operator (Ang)=    0.0000    0.0000    0.0000
                   X=  0.0000E+00               Y=  0.0000E+00               Z=  0.0000E+00           Total=  0.0000E+00
      Quadrupole Moment (Debye*Ang):
      Origin of the operator (Ang)=    0.0000    0.0000    0.0000
                  XX= -2.7962E+01              XY=  0.0000E+00              XZ=  0.0000E+00              YY= -3.5154E+01
                  YZ=  0.0000E+00              ZZ= -3.7570E+01
      In traceless form (Debye*Ang)
                  XX=  8.4003E+00              XY=  0.0000E+00              XZ=  0.0000E+00              YY= -2.3880E+00
                  YZ=  0.0000E+00              ZZ= -6.0124E+00
--


      Input file to MOLDEN was generated!

      Average orbitals are written to the RASORB file
      Natural orbitals for root   1 are written to the RASORB.1 file
      Spin density orbitals for root   1 are written to the SPDORB.1 file

--- Stop Module: last_energy at Tue Jul  2 11:54:30 2024 /rc=_RC_ALL_IS_WELL_ ---
*** files: product2.rasscf.molden product2.RasOrb product2.RasOrb.1 product2.SpdOrb.1 xmldump
    saved to directory /home/kenya/molcas_test/0625_re
--- Module last_energy spent 8 seconds ---

>>> END DO

.##################.
.# Happy landing! #.
.##################.

    Timing: Wall=795.58 User=784.82 System=10.34
