[Molden Format]
[N_Atoms]
                   10
[Atoms] (AU)
C1          1      6           2.24059239     -1.40668495      0.00000000
C1          2      6          -2.24059239     -1.40668495      0.00000000
C1          3      6           2.24059239      1.40668495      0.00000000
C1          4      6          -2.24059239      1.40668495      0.00000000
C2          5      6           0.00000000     -2.53575667      0.00000000
C2          6      6           0.00000000      2.53575667      0.00000000
H3          7      1           4.08990934      2.23412280      0.00000000
H3          8      1          -4.08990934      2.23412280      0.00000000
H3          9      1           4.08990934     -2.23412280      0.00000000
H3         10      1          -4.08990934     -2.23412280      0.00000000
[Charge] (Mulliken)
 -0.94767350048875088     
 -0.94767350048875088     
 -0.94767350048875088     
 -0.94767350048875088     
   7.5808910651163686E-002
   7.5808910651163686E-002
  0.87186458983731585     
  0.87186458983731585     
  0.87186458983731585     
  0.87186458983731585     
[GTO] (AU)
   1
   s   6
  3.047524880E+03  1.834737132E-03
  4.573695180E+02  1.403732281E-02
  1.039486850E+02  6.884262227E-02
  2.921015530E+01  2.321844432E-01
  9.286662960E+00  4.679413484E-01
  3.163926960E+00  3.623119853E-01
   s   3
  7.868272350E+00 -1.193324198E-01
  1.881288540E+00 -1.608541517E-01
  5.442492580E-01  1.143456438E+00
   s   1
  1.687144782E-01  1.000000000E+00
   p   3
  7.868272350E+00  6.899906659E-02
  1.881288540E+00  3.164239610E-01
  5.442492580E-01  7.443082909E-01
   p   1
  1.687144782E-01  1.000000000E+00
   d   1
  8.000000000E-01  1.000000000E+00
 
   2
   s   6
  3.047524880E+03  1.834737132E-03
  4.573695180E+02  1.403732281E-02
  1.039486850E+02  6.884262227E-02
  2.921015530E+01  2.321844432E-01
  9.286662960E+00  4.679413484E-01
  3.163926960E+00  3.623119853E-01
   s   3
  7.868272350E+00 -1.193324198E-01
  1.881288540E+00 -1.608541517E-01
  5.442492580E-01  1.143456438E+00
   s   1
  1.687144782E-01  1.000000000E+00
   p   3
  7.868272350E+00  6.899906659E-02
  1.881288540E+00  3.164239610E-01
  5.442492580E-01  7.443082909E-01
   p   1
  1.687144782E-01  1.000000000E+00
   d   1
  8.000000000E-01  1.000000000E+00
 
   3
   s   6
  3.047524880E+03  1.834737132E-03
  4.573695180E+02  1.403732281E-02
  1.039486850E+02  6.884262227E-02
  2.921015530E+01  2.321844432E-01
  9.286662960E+00  4.679413484E-01
  3.163926960E+00  3.623119853E-01
   s   3
  7.868272350E+00 -1.193324198E-01
  1.881288540E+00 -1.608541517E-01
  5.442492580E-01  1.143456438E+00
   s   1
  1.687144782E-01  1.000000000E+00
   p   3
  7.868272350E+00  6.899906659E-02
  1.881288540E+00  3.164239610E-01
  5.442492580E-01  7.443082909E-01
   p   1
  1.687144782E-01  1.000000000E+00
   d   1
  8.000000000E-01  1.000000000E+00
 
   4
   s   6
  3.047524880E+03  1.834737132E-03
  4.573695180E+02  1.403732281E-02
  1.039486850E+02  6.884262227E-02
  2.921015530E+01  2.321844432E-01
  9.286662960E+00  4.679413484E-01
  3.163926960E+00  3.623119853E-01
   s   3
  7.868272350E+00 -1.193324198E-01
  1.881288540E+00 -1.608541517E-01
  5.442492580E-01  1.143456438E+00
   s   1
  1.687144782E-01  1.000000000E+00
   p   3
  7.868272350E+00  6.899906659E-02
  1.881288540E+00  3.164239610E-01
  5.442492580E-01  7.443082909E-01
   p   1
  1.687144782E-01  1.000000000E+00
   d   1
  8.000000000E-01  1.000000000E+00
 
   5
   s   6
  3.047524880E+03  1.834737132E-03
  4.573695180E+02  1.403732281E-02
  1.039486850E+02  6.884262227E-02
  2.921015530E+01  2.321844432E-01
  9.286662960E+00  4.679413484E-01
  3.163926960E+00  3.623119853E-01
   s   3
  7.868272350E+00 -1.193324198E-01
  1.881288540E+00 -1.608541517E-01
  5.442492580E-01  1.143456438E+00
   s   1
  1.687144782E-01  1.000000000E+00
   p   3
  7.868272350E+00  6.899906659E-02
  1.881288540E+00  3.164239610E-01
  5.442492580E-01  7.443082909E-01
   p   1
  1.687144782E-01  1.000000000E+00
   d   1
  8.000000000E-01  1.000000000E+00
 
   6
   s   6
  3.047524880E+03  1.834737132E-03
  4.573695180E+02  1.403732281E-02
  1.039486850E+02  6.884262227E-02
  2.921015530E+01  2.321844432E-01
  9.286662960E+00  4.679413484E-01
  3.163926960E+00  3.623119853E-01
   s   3
  7.868272350E+00 -1.193324198E-01
  1.881288540E+00 -1.608541517E-01
  5.442492580E-01  1.143456438E+00
   s   1
  1.687144782E-01  1.000000000E+00
   p   3
  7.868272350E+00  6.899906659E-02
  1.881288540E+00  3.164239610E-01
  5.442492580E-01  7.443082909E-01
   p   1
  1.687144782E-01  1.000000000E+00
   d   1
  8.000000000E-01  1.000000000E+00
 
   7
   s   3
  1.873113696E+01  3.349460434E-02
  2.825394365E+00  2.347269535E-01
  6.401216923E-01  8.137573261E-01
   s   1
  1.612777588E-01  1.000000000E+00
 
   8
   s   3
  1.873113696E+01  3.349460434E-02
  2.825394365E+00  2.347269535E-01
  6.401216923E-01  8.137573261E-01
   s   1
  1.612777588E-01  1.000000000E+00
 
   9
   s   3
  1.873113696E+01  3.349460434E-02
  2.825394365E+00  2.347269535E-01
  6.401216923E-01  8.137573261E-01
   s   1
  1.612777588E-01  1.000000000E+00
 
  10
   s   3
  1.873113696E+01  3.349460434E-02
  2.825394365E+00  2.347269535E-01
  6.401216923E-01  8.137573261E-01
   s   1
  1.612777588E-01  1.000000000E+00
 
[MO]
Sym=     1ag 
Ene=   -11.2340
Spin= Alpha
Occup=    2.00000
   1         0.49475407
   2         0.01371715
   3        -0.00418656
   4        -0.00006632
   5        -0.00023593
   6         0.00000000
   7         0.00013552
   8         0.00027911
   9         0.00000000
  10        -0.00083905
  11        -0.00132127
  12        -0.00132957
  13         0.00006188
  14         0.00000000
  15         0.00000000
  16         0.49475407
  17         0.01371715
  18        -0.00418656
  19         0.00006632
  20        -0.00023593
  21         0.00000000
  22        -0.00013552
  23         0.00027911
  24         0.00000000
  25        -0.00083905
  26        -0.00132127
  27        -0.00132957
  28        -0.00006188
  29         0.00000000
  30         0.00000000
  31         0.49475407
  32         0.01371715
  33        -0.00418656
  34        -0.00006632
  35         0.00023593
  36         0.00000000
  37         0.00013552
  38        -0.00027911
  39         0.00000000
  40        -0.00083905
  41        -0.00132127
  42        -0.00132957
  43        -0.00006188
  44         0.00000000
  45         0.00000000
  46         0.49475407
  47         0.01371715
  48        -0.00418656
  49         0.00006632
  50         0.00023593
  51         0.00000000
  52        -0.00013552
  53        -0.00027911
  54         0.00000000
  55        -0.00083905
  56        -0.00132127
  57        -0.00132957
  58         0.00006188
  59         0.00000000
  60         0.00000000
  61         0.07624969
  62         0.00182524
  63         0.00273365
  64         0.00000000
  65        -0.00015379
  66         0.00000000
  67         0.00000000
  68         0.00051747
  69         0.00000000
  70        -0.00037612
  71        -0.00043405
  72        -0.00032356
  73         0.00000000
  74         0.00000000
  75         0.00000000
  76         0.07624969
  77         0.00182524
  78         0.00273365
  79         0.00000000
  80         0.00015379
  81         0.00000000
  82         0.00000000
  83        -0.00051747
  84         0.00000000
  85        -0.00037612
  86        -0.00043405
  87        -0.00032356
  88         0.00000000
  89         0.00000000
  90         0.00000000
  91        -0.00013419
  92         0.00105262
  93        -0.00013419
  94         0.00105262
  95        -0.00013419
  96         0.00105262
  97        -0.00013419
  98         0.00105262
Sym=     2ag 
Ene=   -11.2230
Spin= Alpha
Occup=    2.00000
   1         0.05456526
   2         0.00162275
   3        -0.00427635
   4        -0.00022519
   5        -0.00065425
   6         0.00000000
   7         0.00207160
   8        -0.00012232
   9         0.00000000
  10         0.00010794
  11         0.00006098
  12        -0.00001522
  13         0.00016738
  14         0.00000000
  15         0.00000000
  16         0.05456526
  17         0.00162275
  18        -0.00427635
  19         0.00022519
  20        -0.00065425
  21         0.00000000
  22        -0.00207160
  23        -0.00012232
  24         0.00000000
  25         0.00010794
  26         0.00006098
  27        -0.00001522
  28        -0.00016738
  29         0.00000000
  30         0.00000000
  31         0.05456526
  32         0.00162275
  33        -0.00427635
  34        -0.00022519
  35         0.00065425
  36         0.00000000
  37         0.00207160
  38         0.00012232
  39         0.00000000
  40         0.00010794
  41         0.00006098
  42        -0.00001522
  43        -0.00016738
  44         0.00000000
  45         0.00000000
  46         0.05456526
  47         0.00162275
  48        -0.00427635
  49         0.00022519
  50         0.00065425
  51         0.00000000
  52        -0.00207160
  53         0.00012232
  54         0.00000000
  55         0.00010794
  56         0.00006098
  57        -0.00001522
  58         0.00016738
  59         0.00000000
  60         0.00000000
  61        -0.70000546
  62        -0.01954825
  63         0.01137930
  64         0.00000000
  65        -0.00104321
  66         0.00000000
  67         0.00000000
  68         0.00262451
  69         0.00000000
  70         0.00083283
  71         0.00171222
  72         0.00177104
  73         0.00000000
  74         0.00000000
  75         0.00000000
  76        -0.70000546
  77        -0.01954825
  78         0.01137930
  79         0.00000000
  80         0.00104321
  81         0.00000000
  82         0.00000000
  83        -0.00262451
  84         0.00000000
  85         0.00083283
  86         0.00171222
  87         0.00177104
  88         0.00000000
  89         0.00000000
  90         0.00000000
  91         0.00002826
  92        -0.00031237
  93         0.00002826
  94        -0.00031237
  95         0.00002826
  96        -0.00031237
  97         0.00002826
  98        -0.00031237
Sym=     3ag 
Ene=    -1.1143
Spin= Alpha
Occup=    2.00000
   1        -0.07847823
   2         0.14665769
   3         0.08764847
   4        -0.07499106
   5        -0.04934891
   6         0.00000000
   7        -0.00850206
   8        -0.02339689
   9         0.00000000
  10         0.01119674
  11         0.00201307
  12        -0.00726681
  13         0.00267754
  14         0.00000000
  15         0.00000000
  16        -0.07847823
  17         0.14665769
  18         0.08764847
  19         0.07499106
  20        -0.04934891
  21         0.00000000
  22         0.00850206
  23        -0.02339689
  24         0.00000000
  25         0.01119674
  26         0.00201307
  27        -0.00726681
  28        -0.00267754
  29         0.00000000
  30         0.00000000
  31        -0.07847823
  32         0.14665769
  33         0.08764847
  34        -0.07499106
  35         0.04934891
  36         0.00000000
  37        -0.00850206
  38         0.02339689
  39         0.00000000
  40         0.01119674
  41         0.00201307
  42        -0.00726681
  43        -0.00267754
  44         0.00000000
  45         0.00000000
  46        -0.07847823
  47         0.14665769
  48         0.08764847
  49         0.07499106
  50         0.04934891
  51         0.00000000
  52         0.00850206
  53         0.02339689
  54         0.00000000
  55         0.01119674
  56         0.00201307
  57        -0.00726681
  58         0.00267754
  59         0.00000000
  60         0.00000000
  61        -0.11808650
  62         0.22638642
  63         0.14332150
  64         0.00000000
  65         0.06735917
  66         0.00000000
  67         0.00000000
  68         0.01047055
  69         0.00000000
  70         0.01285175
  71        -0.00367987
  72        -0.00900812
  73         0.00000000
  74         0.00000000
  75         0.00000000
  76        -0.11808650
  77         0.22638642
  78         0.14332150
  79         0.00000000
  80        -0.06735917
  81         0.00000000
  82         0.00000000
  83        -0.01047055
  84         0.00000000
  85         0.01285175
  86        -0.00367987
  87        -0.00900812
  88         0.00000000
  89         0.00000000
  90         0.00000000
  91         0.03710818
  92         0.01141197
  93         0.03710818
  94         0.01141197
  95         0.03710818
  96         0.01141197
  97         0.03710818
  98         0.01141197
Sym=     4ag 
Ene=    -0.7538
Spin= Alpha
Occup=    2.00000
   1        -0.04024631
   2         0.07750151
   3         0.08096099
   4         0.19586685
   5        -0.03821762
   6         0.00000000
   7         0.07899706
   8        -0.02870945
   9         0.00000000
  10         0.00663110
  11         0.00359613
  12        -0.00296406
  13        -0.00604321
  14         0.00000000
  15         0.00000000
  16        -0.04024631
  17         0.07750151
  18         0.08096099
  19        -0.19586685
  20        -0.03821762
  21         0.00000000
  22        -0.07899706
  23        -0.02870945
  24         0.00000000
  25         0.00663110
  26         0.00359613
  27        -0.00296406
  28         0.00604321
  29         0.00000000
  30         0.00000000
  31        -0.04024631
  32         0.07750151
  33         0.08096099
  34         0.19586685
  35         0.03821762
  36         0.00000000
  37         0.07899706
  38         0.02870945
  39         0.00000000
  40         0.00663110
  41         0.00359613
  42        -0.00296406
  43         0.00604321
  44         0.00000000
  45         0.00000000
  46        -0.04024631
  47         0.07750151
  48         0.08096099
  49        -0.19586685
  50         0.03821762
  51         0.00000000
  52        -0.07899706
  53         0.02870945
  54         0.00000000
  55         0.00663110
  56         0.00359613
  57        -0.00296406
  58        -0.00604321
  59         0.00000000
  60         0.00000000
  61         0.04438482
  62        -0.08738617
  63        -0.03584268
  64         0.00000000
  65        -0.07833937
  66         0.00000000
  67         0.00000000
  68        -0.00734020
  69         0.00000000
  70         0.00252868
  71        -0.00652796
  72         0.00380193
  73         0.00000000
  74         0.00000000
  75         0.00000000
  76         0.04438482
  77        -0.08738617
  78        -0.03584268
  79         0.00000000
  80         0.07833937
  81         0.00000000
  82         0.00000000
  83         0.00734020
  84         0.00000000
  85         0.00252868
  86        -0.00652796
  87         0.00380193
  88         0.00000000
  89         0.00000000
  90         0.00000000
  91         0.13904861
  92         0.07211332
  93         0.13904861
  94         0.07211332
  95         0.13904861
  96         0.07211332
  97         0.13904861
  98         0.07211332
Sym=     5ag 
Ene=    -0.6844
Spin= Alpha
Occup=    1.97406
   1         0.05100298
   2        -0.10517273
   3        -0.07753664
   4        -0.00426972
   5        -0.25645129
   6         0.00000000
   7         0.00512459
   8        -0.09797730
   9         0.00000000
  10         0.00758260
  11        -0.01213586
  12         0.00384737
  13         0.00436018
  14         0.00000000
  15         0.00000000
  16         0.05100298
  17        -0.10517273
  18        -0.07753664
  19         0.00426972
  20        -0.25645129
  21         0.00000000
  22        -0.00512459
  23        -0.09797730
  24         0.00000000
  25         0.00758260
  26        -0.01213586
  27         0.00384737
  28        -0.00436018
  29         0.00000000
  30         0.00000000
  31         0.05100298
  32        -0.10517273
  33        -0.07753664
  34        -0.00426972
  35         0.25645129
  36         0.00000000
  37         0.00512459
  38         0.09797730
  39         0.00000000
  40         0.00758260
  41        -0.01213586
  42         0.00384737
  43        -0.00436018
  44         0.00000000
  45         0.00000000
  46         0.05100298
  47        -0.10517273
  48        -0.07753664
  49         0.00426972
  50         0.25645129
  51         0.00000000
  52        -0.00512459
  53         0.09797730
  54         0.00000000
  55         0.00758260
  56        -0.01213586
  57         0.00384737
  58         0.00436018
  59         0.00000000
  60         0.00000000
  61        -0.05407576
  62         0.11722788
  63         0.12883270
  64         0.00000000
  65        -0.08135497
  66         0.00000000
  67         0.00000000
  68        -0.02513540
  69         0.00000000
  70         0.01076245
  71        -0.01292452
  72        -0.00021375
  73         0.00000000
  74         0.00000000
  75         0.00000000
  76        -0.05407576
  77         0.11722788
  78         0.12883270
  79         0.00000000
  80         0.08135497
  81         0.00000000
  82         0.00000000
  83         0.02513540
  84         0.00000000
  85         0.01076245
  86        -0.01292452
  87        -0.00021375
  88         0.00000000
  89         0.00000000
  90         0.00000000
  91         0.02538358
  92         0.03515994
  93         0.02538358
  94         0.03515994
  95         0.02538358
  96         0.03515994
  97         0.02538358
  98         0.03515994
Sym=     6ag 
Ene=    -0.0011
Spin= Alpha
Occup=    0.53354
   1        -0.00203535
   2         0.00434385
   3        -0.02703885
   4        -0.04196717
   5        -0.15587507
   6         0.00000000
   7         0.02656441
   8        -0.11589459
   9         0.00000000
  10         0.01899119
  11        -0.01477324
  12        -0.00105290
  13        -0.00866230
  14         0.00000000
  15         0.00000000
  16        -0.00203535
  17         0.00434385
  18        -0.02703885
  19         0.04196717
  20        -0.15587507
  21         0.00000000
  22        -0.02656441
  23        -0.11589459
  24         0.00000000
  25         0.01899119
  26        -0.01477324
  27        -0.00105290
  28         0.00866230
  29         0.00000000
  30         0.00000000
  31        -0.00203535
  32         0.00434385
  33        -0.02703885
  34        -0.04196717
  35         0.15587507
  36         0.00000000
  37         0.02656441
  38         0.11589459
  39         0.00000000
  40         0.01899119
  41        -0.01477324
  42        -0.00105290
  43         0.00866230
  44         0.00000000
  45         0.00000000
  46        -0.00203535
  47         0.00434385
  48        -0.02703885
  49         0.04196717
  50         0.15587507
  51         0.00000000
  52        -0.02656441
  53         0.11589459
  54         0.00000000
  55         0.01899119
  56        -0.01477324
  57        -0.00105290
  58        -0.00866230
  59         0.00000000
  60         0.00000000
  61         0.04937213
  62        -0.11447698
  63        -0.19256771
  64         0.00000000
  65         0.41595683
  66         0.00000000
  67         0.00000000
  68         0.32263708
  69         0.00000000
  70         0.01918343
  71        -0.01719994
  72         0.00078171
  73         0.00000000
  74         0.00000000
  75         0.00000000
  76         0.04937213
  77        -0.11447698
  78        -0.19256771
  79         0.00000000
  80        -0.41595683
  81         0.00000000
  82         0.00000000
  83        -0.32263708
  84         0.00000000
  85         0.01918343
  86        -0.01719994
  87         0.00078171
  88         0.00000000
  89         0.00000000
  90         0.00000000
  91         0.05306388
  92         0.04987837
  93         0.05306388
  94         0.04987837
  95         0.05306388
  96         0.04987837
  97         0.05306388
  98         0.04987837
Sym=     7ag 
Ene=     0.2592
Spin= Alpha
Occup=    0.00000
   1         0.05300859
   2        -0.08119174
   3        -0.69828784
   4        -0.08247757
   5         0.08862341
   6         0.00000000
   7        -0.48075121
   8         0.32014756
   9         0.00000000
  10         0.01119040
  11        -0.00532608
  12        -0.00074774
  13        -0.00293814
  14         0.00000000
  15         0.00000000
  16         0.05300859
  17        -0.08119174
  18        -0.69828784
  19         0.08247757
  20         0.08862341
  21         0.00000000
  22         0.48075121
  23         0.32014756
  24         0.00000000
  25         0.01119040
  26        -0.00532608
  27        -0.00074774
  28         0.00293814
  29         0.00000000
  30         0.00000000
  31         0.05300859
  32        -0.08119174
  33        -0.69828784
  34        -0.08247757
  35        -0.08862341
  36         0.00000000
  37        -0.48075121
  38        -0.32014756
  39         0.00000000
  40         0.01119040
  41        -0.00532608
  42        -0.00074774
  43         0.00293814
  44         0.00000000
  45         0.00000000
  46         0.05300859
  47        -0.08119174
  48        -0.69828784
  49         0.08247757
  50        -0.08862341
  51         0.00000000
  52         0.48075121
  53        -0.32014756
  54         0.00000000
  55         0.01119040
  56        -0.00532608
  57        -0.00074774
  58        -0.00293814
  59         0.00000000
  60         0.00000000
  61        -0.01203866
  62         0.03125158
  63        -0.09615943
  64         0.00000000
  65         0.02129262
  66         0.00000000
  67         0.00000000
  68        -0.34202109
  69         0.00000000
  70        -0.02107927
  71         0.01248396
  72         0.00352623
  73         0.00000000
  74         0.00000000
  75         0.00000000
  76        -0.01203866
  77         0.03125158
  78        -0.09615943
  79         0.00000000
  80        -0.02129262
  81         0.00000000
  82         0.00000000
  83         0.34202109
  84         0.00000000
  85        -0.02107927
  86         0.01248396
  87         0.00352623
  88         0.00000000
  89         0.00000000
  90         0.00000000
  91         0.01582962
  92         1.07951945
  93         0.01582962
  94         1.07951945
  95         0.01582962
  96         1.07951945
  97         0.01582962
  98         1.07951945
Sym=     8ag 
Ene=     0.4521
Spin= Alpha
Occup=    0.00000
   1         0.04280338
   2         0.01848181
   3        -1.45817583
   4         0.03814158
   5        -0.03158954
   6         0.00000000
   7         1.27226713
   8         0.37945246
   9         0.00000000
  10         0.00712173
  11        -0.01433768
  12         0.00690612
  13         0.01288933
  14         0.00000000
  15         0.00000000
  16         0.04280338
  17         0.01848181
  18        -1.45817583
  19        -0.03814158
  20        -0.03158954
  21         0.00000000
  22        -1.27226713
  23         0.37945246
  24         0.00000000
  25         0.00712173
  26        -0.01433768
  27         0.00690612
  28        -0.01288933
  29         0.00000000
  30         0.00000000
  31         0.04280338
  32         0.01848181
  33        -1.45817583
  34         0.03814158
  35         0.03158954
  36         0.00000000
  37         1.27226713
  38        -0.37945246
  39         0.00000000
  40         0.00712173
  41        -0.01433768
  42         0.00690612
  43        -0.01288933
  44         0.00000000
  45         0.00000000
  46         0.04280338
  47         0.01848181
  48        -1.45817583
  49        -0.03814158
  50         0.03158954
  51         0.00000000
  52        -1.27226713
  53        -0.37945246
  54         0.00000000
  55         0.00712173
  56        -0.01433768
  57         0.00690612
  58         0.01288933
  59         0.00000000
  60         0.00000000
  61        -0.10532421
  62         0.11261197
  63         3.42485682
  64         0.00000000
  65         0.02065972
  66         0.00000000
  67         0.00000000
  68         1.25569397
  69         0.00000000
  70         0.02788347
  71         0.00179449
  72        -0.00202183
  73         0.00000000
  74         0.00000000
  75         0.00000000
  76        -0.10532421
  77         0.11261197
  78         3.42485682
  79         0.00000000
  80        -0.02065972
  81         0.00000000
  82         0.00000000
  83        -1.25569397
  84         0.00000000
  85         0.02788347
  86         0.00179449
  87        -0.00202183
  88         0.00000000
  89         0.00000000
  90         0.00000000
  91         0.00968206
  92        -0.42581074
  93         0.00968206
  94        -0.42581074
  95         0.00968206
  96        -0.42581074
  97         0.00968206
  98        -0.42581074
Sym=     9ag 
Ene=     0.7219
Spin= Alpha
Occup=    0.00000
   1         0.01005779
   2        -0.44926639
   3         0.28196682
   4         0.24865154
   5        -0.05155722
   6         0.00000000
   7         0.00383841
   8         0.03333094
   9         0.00000000
  10         0.00220730
  11        -0.07786783
  12        -0.00981196
  13        -0.03147105
  14         0.00000000
  15         0.00000000
  16         0.01005779
  17        -0.44926639
  18         0.28196682
  19        -0.24865154
  20        -0.05155722
  21         0.00000000
  22        -0.00383841
  23         0.03333094
  24         0.00000000
  25         0.00220730
  26        -0.07786783
  27        -0.00981196
  28         0.03147105
  29         0.00000000
  30         0.00000000
  31         0.01005779
  32        -0.44926639
  33         0.28196682
  34         0.24865154
  35         0.05155722
  36         0.00000000
  37         0.00383841
  38        -0.03333094
  39         0.00000000
  40         0.00220730
  41        -0.07786783
  42        -0.00981196
  43         0.03147105
  44         0.00000000
  45         0.00000000
  46         0.01005779
  47        -0.44926639
  48         0.28196682
  49        -0.24865154
  50         0.05155722
  51         0.00000000
  52        -0.00383841
  53        -0.03333094
  54         0.00000000
  55         0.00220730
  56        -0.07786783
  57        -0.00981196
  58        -0.03147105
  59         0.00000000
  60         0.00000000
  61        -0.03073155
  62        -0.47333341
  63         0.83165521
  64         0.00000000
  65         0.01002013
  66         0.00000000
  67         0.00000000
  68         0.19126616
  69         0.00000000
  70        -0.11654115
  71        -0.01471535
  72         0.00912562
  73         0.00000000
  74         0.00000000
  75         0.00000000
  76        -0.03073155
  77        -0.47333341
  78         0.83165521
  79         0.00000000
  80        -0.01002013
  81         0.00000000
  82         0.00000000
  83        -0.19126616
  84         0.00000000
  85        -0.11654115
  86        -0.01471535
  87         0.00912562
  88         0.00000000
  89         0.00000000
  90         0.00000000
  91         0.10798386
  92        -0.29088241
  93         0.10798386
  94        -0.29088241
  95         0.10798386
  96        -0.29088241
  97         0.10798386
  98        -0.29088241
Sym=    10ag 
Ene=     0.8147
Spin= Alpha
Occup=    0.00000
   1         0.02779076
   2         0.21408222
   3        -0.49039292
   4         0.13924555
   5         0.17716049
   6         0.00000000
   7        -0.16428035
   8        -0.29523081
   9         0.00000000
  10         0.03998013
  11         0.06382391
  12        -0.02119196
  13        -0.03505341
  14         0.00000000
  15         0.00000000
  16         0.02779076
  17         0.21408222
  18        -0.49039292
  19        -0.13924555
  20         0.17716049
  21         0.00000000
  22         0.16428035
  23        -0.29523081
  24         0.00000000
  25         0.03998013
  26         0.06382391
  27        -0.02119196
  28         0.03505341
  29         0.00000000
  30         0.00000000
  31         0.02779076
  32         0.21408222
  33        -0.49039292
  34         0.13924555
  35        -0.17716049
  36         0.00000000
  37        -0.16428035
  38         0.29523081
  39         0.00000000
  40         0.03998013
  41         0.06382391
  42        -0.02119196
  43         0.03505341
  44         0.00000000
  45         0.00000000
  46         0.02779076
  47         0.21408222
  48        -0.49039292
  49        -0.13924555
  50        -0.17716049
  51         0.00000000
  52         0.16428035
  53         0.29523081
  54         0.00000000
  55         0.03998013
  56         0.06382391
  57        -0.02119196
  58        -0.03505341
  59         0.00000000
  60         0.00000000
  61        -0.03306606
  62         0.22892865
  63        -0.10510311
  64         0.00000000
  65        -0.38371108
  66         0.00000000
  67         0.00000000
  68         0.69916117
  69         0.00000000
  70        -0.02182793
  71         0.05621224
  72         0.02138695
  73         0.00000000
  74         0.00000000
  75         0.00000000
  76        -0.03306606
  77         0.22892865
  78        -0.10510311
  79         0.00000000
  80         0.38371108
  81         0.00000000
  82         0.00000000
  83        -0.69916117
  84         0.00000000
  85        -0.02182793
  86         0.05621224
  87         0.02138695
  88         0.00000000
  89         0.00000000
  90         0.00000000
  91         0.29725493
  92         0.04387234
  93         0.29725493
  94         0.04387234
  95         0.29725493
  96         0.04387234
  97         0.29725493
  98         0.04387234
Sym=    11ag 
Ene=     0.8445
Spin= Alpha
Occup=    0.00000
   1        -0.02281903
   2        -0.20767708
   3         0.19449103
   4        -0.16366999
   5        -0.06472460
   6         0.00000000
   7         0.41397608
   8        -0.25078385
   9         0.00000000
  10        -0.12190716
  11        -0.01029875
  12         0.04059019
  13        -0.01072990
  14         0.00000000
  15         0.00000000
  16        -0.02281903
  17        -0.20767708
  18         0.19449103
  19         0.16366999
  20        -0.06472460
  21         0.00000000
  22        -0.41397608