[Molden Format]
[N_Atoms]
                   10
[Atoms] (AU)
C1          1      6           2.24059239     -1.40668495      0.00000000
C1          2      6          -2.24059239     -1.40668495      0.00000000
C1          3      6           2.24059239      1.40668495      0.00000000
C1          4      6          -2.24059239      1.40668495      0.00000000
C2          5      6           0.00000000     -2.53575667      0.00000000
C2          6      6           0.00000000      2.53575667      0.00000000
H3          7      1           4.08990934      2.23412280      0.00000000
H3          8      1          -4.08990934      2.23412280      0.00000000
H3          9      1           4.08990934     -2.23412280      0.00000000
H3         10      1          -4.08990934     -2.23412280      0.00000000
[Charge] (Mulliken)
   0.0000000000000000     
   0.0000000000000000     
   0.0000000000000000     
   0.0000000000000000     
   0.0000000000000000     
   0.0000000000000000     
   0.0000000000000000     
   0.0000000000000000     
   0.0000000000000000     
   0.0000000000000000     
[GTO] (AU)
   1
   s   6
  3.047524880E+03  1.834737132E-03
  4.573695180E+02  1.403732281E-02
  1.039486850E+02  6.884262227E-02
  2.921015530E+01  2.321844432E-01
  9.286662960E+00  4.679413484E-01
  3.163926960E+00  3.623119853E-01
   s   3
  7.868272350E+00 -1.193324198E-01
  1.881288540E+00 -1.608541517E-01
  5.442492580E-01  1.143456438E+00
   s   1
  1.687144782E-01  1.000000000E+00
   p   3
  7.868272350E+00  6.899906659E-02
  1.881288540E+00  3.164239610E-01
  5.442492580E-01  7.443082909E-01
   p   1
  1.687144782E-01  1.000000000E+00
   d   1
  8.000000000E-01  1.000000000E+00
 
   2
   s   6
  3.047524880E+03  1.834737132E-03
  4.573695180E+02  1.403732281E-02
  1.039486850E+02  6.884262227E-02
  2.921015530E+01  2.321844432E-01
  9.286662960E+00  4.679413484E-01
  3.163926960E+00  3.623119853E-01
   s   3
  7.868272350E+00 -1.193324198E-01
  1.881288540E+00 -1.608541517E-01
  5.442492580E-01  1.143456438E+00
   s   1
  1.687144782E-01  1.000000000E+00
   p   3
  7.868272350E+00  6.899906659E-02
  1.881288540E+00  3.164239610E-01
  5.442492580E-01  7.443082909E-01
   p   1
  1.687144782E-01  1.000000000E+00
   d   1
  8.000000000E-01  1.000000000E+00
 
   3
   s   6
  3.047524880E+03  1.834737132E-03
  4.573695180E+02  1.403732281E-02
  1.039486850E+02  6.884262227E-02
  2.921015530E+01  2.321844432E-01
  9.286662960E+00  4.679413484E-01
  3.163926960E+00  3.623119853E-01
   s   3
  7.868272350E+00 -1.193324198E-01
  1.881288540E+00 -1.608541517E-01
  5.442492580E-01  1.143456438E+00
   s   1
  1.687144782E-01  1.000000000E+00
   p   3
  7.868272350E+00  6.899906659E-02
  1.881288540E+00  3.164239610E-01
  5.442492580E-01  7.443082909E-01
   p   1
  1.687144782E-01  1.000000000E+00
   d   1
  8.000000000E-01  1.000000000E+00
 
   4
   s   6
  3.047524880E+03  1.834737132E-03
  4.573695180E+02  1.403732281E-02
  1.039486850E+02  6.884262227E-02
  2.921015530E+01  2.321844432E-01
  9.286662960E+00  4.679413484E-01
  3.163926960E+00  3.623119853E-01
   s   3
  7.868272350E+00 -1.193324198E-01
  1.881288540E+00 -1.608541517E-01
  5.442492580E-01  1.143456438E+00
   s   1
  1.687144782E-01  1.000000000E+00
   p   3
  7.868272350E+00  6.899906659E-02
  1.881288540E+00  3.164239610E-01
  5.442492580E-01  7.443082909E-01
   p   1
  1.687144782E-01  1.000000000E+00
   d   1
  8.000000000E-01  1.000000000E+00
 
   5
   s   6
  3.047524880E+03  1.834737132E-03
  4.573695180E+02  1.403732281E-02
  1.039486850E+02  6.884262227E-02
  2.921015530E+01  2.321844432E-01
  9.286662960E+00  4.679413484E-01
  3.163926960E+00  3.623119853E-01
   s   3
  7.868272350E+00 -1.193324198E-01
  1.881288540E+00 -1.608541517E-01
  5.442492580E-01  1.143456438E+00
   s   1
  1.687144782E-01  1.000000000E+00
   p   3
  7.868272350E+00  6.899906659E-02
  1.881288540E+00  3.164239610E-01
  5.442492580E-01  7.443082909E-01
   p   1
  1.687144782E-01  1.000000000E+00
   d   1
  8.000000000E-01  1.000000000E+00
 
   6
   s   6
  3.047524880E+03  1.834737132E-03
  4.573695180E+02  1.403732281E-02
  1.039486850E+02  6.884262227E-02
  2.921015530E+01  2.321844432E-01
  9.286662960E+00  4.679413484E-01
  3.163926960E+00  3.623119853E-01
   s   3
  7.868272350E+00 -1.193324198E-01
  1.881288540E+00 -1.608541517E-01
  5.442492580E-01  1.143456438E+00
   s   1
  1.687144782E-01  1.000000000E+00
   p   3
  7.868272350E+00  6.899906659E-02
  1.881288540E+00  3.164239610E-01
  5.442492580E-01  7.443082909E-01
   p   1
  1.687144782E-01  1.000000000E+00
   d   1
  8.000000000E-01  1.000000000E+00
 
   7
   s   3
  1.873113696E+01  3.349460434E-02
  2.825394365E+00  2.347269535E-01
  6.401216923E-01  8.137573261E-01
   s   1
  1.612777588E-01  1.000000000E+00
 
   8
   s   3
  1.873113696E+01  3.349460434E-02
  2.825394365E+00  2.347269535E-01
  6.401216923E-01  8.137573261E-01
   s   1
  1.612777588E-01  1.000000000E+00
 
   9
   s   3
  1.873113696E+01  3.349460434E-02
  2.825394365E+00  2.347269535E-01
  6.401216923E-01  8.137573261E-01
   s   1
  1.612777588E-01  1.000000000E+00
 
  10
   s   3
  1.873113696E+01  3.349460434E-02
  2.825394365E+00  2.347269535E-01
  6.401216923E-01  8.137573261E-01
   s   1
  1.612777588E-01  1.000000000E+00
 
[MO]
Sym=     1ag 
Ene=   -11.3590
Spin= Alpha
Occup=    2.00000
   1         0.38248867
   2         0.00862838
   3         0.00141920
   4        -0.00136997
   5         0.00042043
   6         0.00000000
   7        -0.00085554
   8         0.00026256
   9         0.00000000
  10         0.00000000
  11         0.00000000
  12         0.00000000
  13        -0.00000000
  14         0.00000000
  15         0.00000000
  16         0.38248867
  17         0.00862838
  18         0.00141920
  19         0.00136997
  20         0.00042043
  21         0.00000000
  22         0.00085554
  23         0.00026256
  24         0.00000000
  25         0.00000000
  26         0.00000000
  27         0.00000000
  28         0.00000000
  29         0.00000000
  30         0.00000000
  31         0.38248867
  32         0.00862838
  33         0.00141920
  34        -0.00136997
  35        -0.00042043
  36         0.00000000
  37        -0.00085554
  38        -0.00026256
  39         0.00000000
  40         0.00000000
  41         0.00000000
  42         0.00000000
  43         0.00000000
  44         0.00000000
  45         0.00000000
  46         0.38248867
  47         0.00862838
  48         0.00141920
  49         0.00136997
  50        -0.00042043
  51         0.00000000
  52         0.00085554
  53        -0.00026256
  54         0.00000000
  55         0.00000000
  56         0.00000000
  57         0.00000000
  58        -0.00000000
  59         0.00000000
  60         0.00000000
  61         0.44640019
  62         0.00988554
  63         0.00145083
  64         0.00000000
  65         0.00131099
  66         0.00000000
  67         0.00000000
  68         0.00081872
  69         0.00000000
  70         0.00000000
  71         0.00000000
  72        -0.00000000
  73         0.00000000
  74         0.00000000
  75         0.00000000
  76         0.44640019
  77         0.00988554
  78         0.00145083
  79         0.00000000
  80        -0.00131099
  81         0.00000000
  82         0.00000000
  83        -0.00081872
  84         0.00000000
  85         0.00000000
  86         0.00000000
  87        -0.00000000
  88         0.00000000
  89         0.00000000
  90         0.00000000
  91         0.00095387
  92         0.00106505
  93         0.00095387
  94         0.00106505
  95         0.00095387
  96         0.00106505
  97         0.00095387
  98         0.00106505
Sym=     2ag 
Ene=   -11.3290
Spin= Alpha
Occup=    2.00000
   1        -0.31698379
   2        -0.00527364
   3         0.00091368
   4        -0.00123335
   5        -0.00114282
   6         0.00000000
   7        -0.00077023
   8        -0.00071369
   9         0.00000000
  10         0.00000000
  11         0.00000000
  12         0.00000000
  13         0.00000000
  14         0.00000000
  15         0.00000000
  16        -0.31698379
  17        -0.00527364
  18         0.00091368
  19         0.00123335
  20        -0.00114282
  21         0.00000000
  22         0.00077023
  23        -0.00071369
  24         0.00000000
  25         0.00000000
  26         0.00000000
  27         0.00000000
  28        -0.00000000
  29         0.00000000
  30         0.00000000
  31        -0.31698379
  32        -0.00527364
  33         0.00091368
  34        -0.00123335
  35         0.00114282
  36         0.00000000
  37        -0.00077023
  38         0.00071369
  39         0.00000000
  40         0.00000000
  41         0.00000000
  42         0.00000000
  43        -0.00000000
  44         0.00000000
  45         0.00000000
  46        -0.31698379
  47        -0.00527364
  48         0.00091368
  49         0.00123335
  50         0.00114282
  51         0.00000000
  52         0.00077023
  53         0.00071369
  54         0.00000000
  55         0.00000000
  56         0.00000000
  57         0.00000000
  58         0.00000000
  59         0.00000000
  60         0.00000000
  61         0.54348323
  62         0.00881347
  63        -0.00182086
  64         0.00000000
  65        -0.00083317
  66         0.00000000
  67         0.00000000
  68        -0.00052032
  69         0.00000000
  70         0.00000000
  71         0.00000000
  72         0.00000000
  73         0.00000000
  74         0.00000000
  75         0.00000000
  76         0.54348323
  77         0.00881347
  78        -0.00182086
  79         0.00000000
  80         0.00083317
  81         0.00000000
  82         0.00000000
  83         0.00052032
  84         0.00000000
  85         0.00000000
  86         0.00000000
  87         0.00000000
  88         0.00000000
  89         0.00000000
  90         0.00000000
  91        -0.00057539
  92        -0.00064245
  93        -0.00057539
  94        -0.00064245
  95        -0.00057539
  96        -0.00064245
  97        -0.00057539
  98        -0.00064245
Sym=     3ag 
Ene=    -1.7354
Spin= Alpha
Occup=    2.00000
   1        -0.09816746
   2         0.11662492
   3         0.13194671
   4        -0.04249530
   5         0.03033357
   6         0.00000000
   7        -0.02653829
   8         0.01894330
   9         0.00000000
  10        -0.00000000
  11        -0.00000000
  12        -0.00000000
  13        -0.00000000
  14         0.00000000
  15         0.00000000
  16        -0.09816746
  17         0.11662492
  18         0.13194671
  19         0.04249530
  20         0.03033357
  21         0.00000000
  22         0.02653829
  23         0.01894330
  24         0.00000000
  25        -0.00000000
  26        -0.00000000
  27        -0.00000000
  28         0.00000000
  29         0.00000000
  30         0.00000000
  31        -0.09816746
  32         0.11662492
  33         0.13194671
  34        -0.04249530
  35        -0.03033357
  36         0.00000000
  37        -0.02653829
  38        -0.01894330
  39         0.00000000
  40        -0.00000000
  41        -0.00000000
  42        -0.00000000
  43         0.00000000
  44         0.00000000
  45         0.00000000
  46        -0.09816746
  47         0.11662492
  48         0.13194671
  49         0.04249530
  50        -0.03033357
  51         0.00000000
  52         0.02653829
  53        -0.01894330
  54         0.00000000
  55        -0.00000000
  56        -0.00000000
  57        -0.00000000
  58        -0.00000000
  59         0.00000000
  60         0.00000000
  61        -0.09587667
  62         0.11375395
  63         0.12870125
  64         0.00000000
  65         0.05960119
  66         0.00000000
  67         0.00000000
  68         0.03722091
  69         0.00000000
  70        -0.00000000
  71        -0.00000000
  72         0.00000000
  73         0.00000000
  74         0.00000000
  75         0.00000000
  76        -0.09587667
  77         0.11375395
  78         0.12870125
  79         0.00000000
  80        -0.05960119
  81         0.00000000
  82         0.00000000
  83        -0.03722091
  84         0.00000000
  85        -0.00000000
  86        -0.00000000
  87         0.00000000
  88         0.00000000
  89         0.00000000
  90         0.00000000
  91         0.03534062
  92         0.03945963
  93         0.03534062
  94         0.03945963
  95         0.03534062
  96         0.03945963
  97         0.03534062
  98         0.03945963
Sym=     4ag 
Ene=    -0.9833
Spin= Alpha
Occup=    2.00000
   1        -0.03480142
   2         0.05818965
   3         0.06553091
   4         0.16392913
   5         0.01573191
   6         0.00000000
   7         0.10237366
   8         0.00982457
   9         0.00000000
  10        -0.00000000
  11        -0.00000000
  12        -0.00000000
  13         0.00000000
  14         0.00000000
  15         0.00000000
  16        -0.03480142
  17         0.05818965
  18         0.06553091
  19        -0.16392913
  20         0.01573191
  21         0.00000000
  22        -0.10237366
  23         0.00982457
  24         0.00000000
  25        -0.00000000
  26        -0.00000000
  27        -0.00000000
  28        -0.00000000
  29         0.00000000
  30         0.00000000
  31        -0.03480142
  32         0.05818965
  33         0.06553091
  34         0.16392913
  35        -0.01573191
  36         0.00000000
  37         0.10237366
  38        -0.00982457
  39         0.00000000
  40        -0.00000000
  41        -0.00000000
  42        -0.00000000
  43        -0.00000000
  44         0.00000000
  45         0.00000000
  46        -0.03480142
  47         0.05818965
  48         0.06553091
  49        -0.16392913
  50        -0.01573191
  51         0.00000000
  52        -0.10237366
  53        -0.00982457
  54         0.00000000
  55        -0.00000000
  56        -0.00000000
  57        -0.00000000
  58         0.00000000
  59         0.00000000
  60         0.00000000
  61         0.07063290
  62        -0.08552546
  63        -0.09673246
  64         0.00000000
  65        -0.04422398
  66         0.00000000
  67         0.00000000
  68        -0.02761785
  69         0.00000000
  70        -0.00000000
  71         0.00000000
  72        -0.00000000
  73         0.00000000
  74         0.00000000
  75         0.00000000
  76         0.07063290
  77        -0.08552546
  78        -0.09673246
  79         0.00000000
  80         0.04422398
  81         0.00000000
  82         0.00000000
  83         0.02761785
  84         0.00000000
  85        -0.00000000
  86         0.00000000
  87        -0.00000000
  88         0.00000000
  89         0.00000000
  90         0.00000000
  91         0.10302315
  92         0.11503067
  93         0.10302315
  94         0.11503067
  95         0.10302315
  96         0.11503067
  97         0.10302315
  98         0.11503067
Sym=     5ag 
Ene=    -0.7776
Spin= Alpha
Occup=    2.00000
   1        -0.01451437
   2         0.00926626
   3         0.01062736
   4        -0.00588868
   5         0.18839792
   6         0.00000000
   7        -0.00367748
   8         0.11765440
   9         0.00000000
  10         0.00000000
  11         0.00000000
  12         0.00000000
  13        -0.00000000
  14         0.00000000
  15         0.00000000
  16        -0.01451437
  17         0.00926626
  18         0.01062736
  19         0.00588868
  20         0.18839792
  21         0.00000000
  22         0.00367748
  23         0.11765440
  24         0.00000000
  25         0.00000000
  26         0.00000000
  27         0.00000000
  28         0.00000000
  29         0.00000000
  30         0.00000000
  31        -0.01451437
  32         0.00926626
  33         0.01062736
  34        -0.00588868
  35        -0.18839792
  36         0.00000000
  37        -0.00367748
  38        -0.11765440
  39         0.00000000
  40         0.00000000
  41         0.00000000
  42         0.00000000
  43         0.00000000
  44         0.00000000
  45         0.00000000
  46        -0.01451437
  47         0.00926626
  48         0.01062736
  49         0.00588868
  50        -0.18839792
  51         0.00000000
  52         0.00367748
  53        -0.11765440
  54         0.00000000
  55         0.00000000
  56         0.00000000
  57         0.00000000
  58        -0.00000000
  59         0.00000000
  60         0.00000000
  61         0.08656139
  62        -0.15401569
  63        -0.17332763
  64         0.00000000
  65         0.17146205
  66         0.00000000
  67         0.00000000
  68         0.10707796
  69         0.00000000
  70        -0.00000000
  71         0.00000000
  72        -0.00000000
  73         0.00000000
  74         0.00000000
  75         0.00000000
  76         0.08656139
  77        -0.15401569
  78        -0.17332763
  79         0.00000000
  80        -0.17146205
  81         0.00000000
  82         0.00000000
  83        -0.10707796
  84         0.00000000
  85        -0.00000000
  86         0.00000000
  87        -0.00000000
  88         0.00000000
  89         0.00000000
  90         0.00000000
  91        -0.04069380
  92        -0.04543673
  93        -0.04069380
  94        -0.04543673
  95        -0.04069380
  96        -0.04543673
  97        -0.04069380
  98        -0.04543673
Sym=     6ag 
Ene=    -0.3356
Spin= Alpha
Occup=    0.00000
   1         0.00543866
   2        -0.03116391
   3        -0.03481304
   4        -0.03572078
   5        -0.21413772
   6         0.00000000
   7        -0.02230761
   8        -0.13372889
   9         0.00000000
  10        -0.00000000
  11        -0.00000000
  12        -0.00000000
  13         0.00000000
  14         0.00000000
  15         0.00000000
  16         0.00543866
  17        -0.03116391
  18        -0.03481304
  19         0.03572078
  20        -0.21413772
  21         0.00000000
  22         0.02230761
  23        -0.13372889
  24         0.00000000
  25        -0.00000000
  26        -0.00000000
  27        -0.00000000
  28        -0.00000000
  29         0.00000000
  30         0.00000000
  31         0.00543866
  32        -0.03116391
  33        -0.03481304
  34        -0.03572078
  35         0.21413772
  36         0.00000000
  37        -0.02230761
  38         0.13372889
  39         0.00000000
  40        -0.00000000
  41        -0.00000000
  42        -0.00000000
  43        -0.00000000
  44         0.00000000
  45         0.00000000
  46         0.00543866
  47        -0.03116391
  48        -0.03481304
  49         0.03572078
  50         0.21413772
  51         0.00000000
  52         0.02230761
  53         0.13372889
  54         0.00000000
  55        -0.00000000
  56        -0.00000000
  57        -0.00000000
  58         0.00000000
  59         0.00000000
  60         0.00000000
  61         0.02650709
  62        -0.12322628
  63        -0.13776248
  64         0.00000000
  65         0.41161074
  66         0.00000000
  67         0.00000000
  68         0.25705069
  69         0.00000000
  70        -0.00000000
  71        -0.00000000
  72        -0.00000000
  73         0.00000000
  74         0.00000000
  75         0.00000000
  76         0.02650709
  77        -0.12322628
  78        -0.13776248
  79         0.00000000
  80        -0.41161074
  81         0.00000000
  82         0.00000000
  83        -0.25705069
  84         0.00000000
  85        -0.00000000
  86        -0.00000000
  87        -0.00000000
  88         0.00000000
  89         0.00000000
  90         0.00000000
  91         0.09038501
  92         0.10091954
  93         0.09038501
  94         0.10091954
  95         0.09038501
  96         0.10091954
  97         0.09038501
  98         0.10091954
Sym=     7ag 
Ene=    -0.1394
Spin= Alpha
Occup=    0.00000
   1         0.06838872
   2        -0.31279935
   3        -0.34972185
   4        -0.16778246
   5         0.21407959
   6         0.00000000
   7        -0.10478006
   8         0.13369259
   9         0.00000000
  10         0.00000000
  11         0.00000000
  12         0.00000000
  13         0.00000000
  14         0.00000000
  15         0.00000000
  16         0.06838872
  17        -0.31279935
  18        -0.34972185
  19         0.16778246
  20         0.21407959
  21         0.00000000
  22         0.10478006
  23         0.13369259
  24         0.00000000
  25         0.00000000
  26         0.00000000
  27         0.00000000
  28        -0.00000000
  29         0.00000000
  30         0.00000000
  31         0.06838872
  32        -0.31279935
  33        -0.34972185
  34        -0.16778246
  35        -0.21407959
  36         0.00000000
  37        -0.10478006
  38        -0.13369259
  39         0.00000000
  40         0.00000000
  41         0.00000000
  42         0.00000000
  43        -0.00000000
  44         0.00000000
  45         0.00000000
  46         0.06838872
  47        -0.31279935
  48        -0.34972185
  49         0.16778246
  50        -0.21407959
  51         0.00000000
  52         0.10478006
  53        -0.13369259
  54         0.00000000
  55         0.00000000
  56         0.00000000
  57         0.00000000
  58         0.00000000
  59         0.00000000
  60         0.00000000
  61        -0.04077985
  62         0.16848744
  63         0.18845991
  64         0.00000000
  65        -0.02717626
  66         0.00000000
  67         0.00000000
  68        -0.01697156
  69         0.00000000
  70         0.00000000
  71        -0.00000000
  72         0.00000000
  73         0.00000000
  74         0.00000000
  75         0.00000000
  76        -0.04077985
  77         0.16848744
  78         0.18845991
  79         0.00000000
  80         0.02717626
  81         0.00000000
  82         0.00000000
  83         0.01697156
  84         0.00000000
  85         0.00000000
  86        -0.00000000
  87         0.00000000
  88         0.00000000
  89         0.00000000
  90         0.00000000
  91         0.33144881
  92         0.37007975
  93         0.33144881
  94         0.37007975
  95         0.33144881
  96         0.37007975
  97         0.33144881
  98         0.37007975
Sym=     8ag 
Ene=    -0.0989
Spin= Alpha
Occup=    0.00000
   1         0.03558170
   2        -0.19956158
   3        -0.22294532
   4         0.42371481
   5         0.07143160
   6         0.00000000
   7         0.26460968
   8         0.04460900
   9         0.00000000
  10        -0.00000000
  11        -0.00000000
  12        -0.00000000
  13         0.00000000
  14         0.00000000
  15         0.00000000
  16         0.03558170
  17        -0.19956158
  18        -0.22294532
  19        -0.42371481
  20         0.07143160
  21         0.00000000
  22        -0.26460968
  23         0.04460900
  24         0.00000000
  25        -0.00000000
  26        -0.00000000
  27        -0.00000000
  28        -0.00000000
  29         0.00000000
  30         0.00000000
  31         0.03558170
  32        -0.19956158
  33        -0.22294532
  34         0.42371481
  35        -0.07143160
  36         0.00000000
  37         0.26460968
  38        -0.04460900
  39         0.00000000
  40        -0.00000000
  41        -0.00000000
  42        -0.00000000
  43        -0.00000000
  44         0.00000000
  45         0.00000000
  46         0.03558170
  47        -0.19956158
  48        -0.22294532
  49        -0.42371481
  50        -0.07143160
  51         0.00000000
  52        -0.26460968
  53        -0.04460900
  54         0.00000000
  55        -0.00000000
  56        -0.00000000
  57        -0.00000000
  58         0.00000000
  59         0.00000000
  60         0.00000000
  61        -0.09911758
  62         0.57748405
  63         0.64506871
  64         0.00000000
  65         0.39634706
  66         0.00000000
  67         0.00000000
  68         0.24751853
  69         0.00000000
  70         0.00000000
  71         0.00000000
  72         0.00000000
  73         0.00000000
  74         0.00000000
  75         0.00000000
  76        -0.09911758
  77         0.57748405
  78         0.64506871
  79         0.00000000
  80        -0.39634706
  81         0.00000000
  82         0.00000000
  83        -0.24751853
  84         0.00000000
  85         0.00000000
  86         0.00000000
  87         0.00000000
  88         0.00000000
  89         0.00000000
  90         0.00000000
  91        -0.12746467
  92        -0.14232091
  93        -0.12746467
  94        -0.14232091
  95        -0.12746467
  96        -0.14232091
  97        -0.12746467
  98        -0.14232091
Sym=     9ag 
Ene=     4.1864
Spin= Alpha
Occup=    0.00000
   1         0.00990407
   2         0.11725238
   3        -1.52352086
   4        -0.16429383
   5         0.00775740
   6         0.00000000
   7         1.95520000
   8         0.03182947
   9         0.00000000
  10        -0.13215068
  11         0.01333119
  12         0.01076156
  13        -0.11348231
  14         0.00000000
  15         0.00000000
  16         0.00990407
  17         0.11725238
  18        -1.52352086
  19         0.16429383
  20         0.00775740
  21         0.00000000
  22        -1.95520000
  23         0.03182947
  24         0.00000000
  25        -0.13215068
  26         0.01333119
  27         0.01076156
  28         0.11348231
  29         0.00000000
  30         0.00000000
  31         0.00990407
  32         0.11725238
  33        -1.52352086
  34        -0.16429383
  35        -0.00775740
  36         0.00000000
  37         1.95520000
  38        -0.03182947
  39         0.00000000
  40        -0.13215068
  41         0.01333119
  42         0.01076156
  43         0.11348231
  44         0.00000000
  45         0.00000000
  46         0.00990407
  47         0.11725238
  48        -1.52352086
  49         0.16429383
  50        -0.00775740
  51         0.00000000
  52        -1.95520000
  53        -0.03182947
  54         0.00000000
  55        -0.13215068
  56         0.01333119
  57         0.01076156
  58        -0.11348231
  59         0.00000000
  60         0.00000000
  61        -0.06059540
  62        -0.61555353
  63         4.85905193
  64         0.00000000
  65        -0.25106113
  66         0.00000000
  67         0.00000000
  68         2.14986753
  69         0.00000000
  70         0.22606233
  71         0.07747023
  72        -0.02537455
  73         0.00000000
  74         0.00000000
  75         0.00000000
  76        -0.06059540
  77        -0.61555353
  78         4.85905193
  79         0.00000000
  80         0.25106113
  81         0.00000000
  82         0.00000000
  83        -2.14986753
  84         0.00000000
  85         0.22606233
  86         0.07747023
  87        -0.02537455
  88         0.00000000
  89         0.00000000
  90         0.00000000
  91         0.14596310
  92        -1.11792859
  93         0.14596310
  94        -1.11792859
  95         0.14596310
  96        -1.11792859
  97         0.14596310
  98        -1.11792859
Sym=    10ag 
Ene=     4.2856
Spin= Alpha
Occup=    0.00000
   1         0.04324403
   2         0.50785421
   3        -1.72432830
   4        -0.01633770
   5        -0.06296869
   6         0.00000000
   7         0.01614745
   8         0.43258136
   9         0.00000000
  10         0.06877598
  11         0.15783717
  12         0.15827431
  13        -0.00143675
  14         0.00000000
  15         0.00000000
  16         0.04324403
  17         0.50785421
  18        -1.72432830
  19         0.01633770
  20        -0.06296869
  21         0.00000000
  22        -0.01614745
  23         0.43258136
  24         0.00000000
  25         0.06877598
  26         0.15783717
  27         0.15827431
  28         0.00143675
  29         0.00000000
  30         0.00000000
  31         0.04324403
  32         0.50785421
  33        -1.72432830
  34        -0.01633770
  35         0.06296869
  36         0.00000000
  37         0.01614745
  38        -0.43258136
  39         0.00000000
  40         0.06877598
  41         0.15783717
  42         0.15827431
  43         0.00143675
  44         0.00000000
  45         0.00000000
  46         0.04324403
  47         0.50785421
  48        -1.72432830
  49         0.01633770
  50         0.06296869
  51         0.00000000
  52        -0.01614745
  53        -0.43258136
  54         0.00000000
  55         0.06877598
  56         0.15783717
  57         0.15827431
  58        -0.00143675
  59         0.00000000
  60         0.00000000
  61         0.00774261
  62         0.12573221
  63         0.83864522
  64         0.00000000
  65        -0.01427281
  66         0.00000000
  67         0.00000000
  68         0.18392820
  69         0.00000000
  70         0.19872114
  71         0.10652963
  72         0.10629473
  73         0.00000000
  74         0.00000000
  75         0.00000000
  76         0.00774261
  77         0.12573221
  78         0.83864522
  79         0.00000000
  80         0.01427281
  81         0.00000000
  82         0.00000000
  83        -0.18392820
  84         0.00000000
  85         0.19872114
  86         0.10652963
  87         0.10629473
  88         0.00000000
  89         0.00000000
  90         0.00000000
  91        -0.17410934
  92         0.87202024
  93        -0.17410934
  94         0.87202024
  95        -0.17410934
  96         0.87202024
  97        -0.17410934
  98         0.87202024
Sym=    11ag 
Ene=     4.4651
Spin= Alpha
Occup=    0.00000
   1         0.00491816
   2         0.05011628
   3        -1.22912060
   4        -0.02732213
   5        -0.18892384
   6         0.00000000
   7         0.58065494
   8         0.60458254
   9         0.00000000
  10        -0.10587741
  11        -0.10118596
  12        -0.00776488
  13        -0.01671571
  14         0.00000000
  15         0.00000000
  16         0.00491816
  17         0.05011628
  18        -1.22912060
  19         0.02732213
  20        -0.18892384
  21         0.00000000
  22        -0.58065494