[Molden Format]
[N_Atoms]
                   10
[Atoms] (AU)
C1          1      6          -4.21972115      2.00934279      0.00000000
C1          2      6           4.21972115      2.00934279      0.00000000
C2          3      6          -2.82932862      0.18681408      0.00000000
C2          4      6           2.82932862      0.18681408      0.00000000
H3          5      1           5.39703690      3.62081226      0.00000000
H3          6      1          -5.39703690      3.62081226      0.00000000
C4          7      6          -1.27500155     -2.03631771      0.00000000
C4          8      6           1.27500155     -2.03631771      0.00000000
H5          9      1          -2.24682329     -3.82010213      0.00000000
H5         10      1           2.24682329     -3.82010213      0.00000000
[Charge] (Mulliken)
 -0.92263218380019474     
 -0.92263218380019474     
  0.24583724633847304     
  0.24583724633847304     
  0.57518172514499888     
  0.57518172514499888     
 -0.34264009737148271     
 -0.34264009737148271     
  0.44425330968769305     
  0.44425330968769305     
[GTO] (AU)
   1
   s   6
  3.047524880E+03  1.834737132E-03
  4.573695180E+02  1.403732281E-02
  1.039486850E+02  6.884262227E-02
  2.921015530E+01  2.321844432E-01
  9.286662960E+00  4.679413484E-01
  3.163926960E+00  3.623119853E-01
   s   3
  7.868272350E+00 -1.193324198E-01
  1.881288540E+00 -1.608541517E-01
  5.442492580E-01  1.143456438E+00
   s   1
  1.687144782E-01  1.000000000E+00
   p   3
  7.868272350E+00  6.899906659E-02
  1.881288540E+00  3.164239610E-01
  5.442492580E-01  7.443082909E-01
   p   1
  1.687144782E-01  1.000000000E+00
   d   1
  8.000000000E-01  1.000000000E+00
 
   2
   s   6
  3.047524880E+03  1.834737132E-03
  4.573695180E+02  1.403732281E-02
  1.039486850E+02  6.884262227E-02
  2.921015530E+01  2.321844432E-01
  9.286662960E+00  4.679413484E-01
  3.163926960E+00  3.623119853E-01
   s   3
  7.868272350E+00 -1.193324198E-01
  1.881288540E+00 -1.608541517E-01
  5.442492580E-01  1.143456438E+00
   s   1
  1.687144782E-01  1.000000000E+00
   p   3
  7.868272350E+00  6.899906659E-02
  1.881288540E+00  3.164239610E-01
  5.442492580E-01  7.443082909E-01
   p   1
  1.687144782E-01  1.000000000E+00
   d   1
  8.000000000E-01  1.000000000E+00
 
   3
   s   6
  3.047524880E+03  1.834737132E-03
  4.573695180E+02  1.403732281E-02
  1.039486850E+02  6.884262227E-02
  2.921015530E+01  2.321844432E-01
  9.286662960E+00  4.679413484E-01
  3.163926960E+00  3.623119853E-01
   s   3
  7.868272350E+00 -1.193324198E-01
  1.881288540E+00 -1.608541517E-01
  5.442492580E-01  1.143456438E+00
   s   1
  1.687144782E-01  1.000000000E+00
   p   3
  7.868272350E+00  6.899906659E-02
  1.881288540E+00  3.164239610E-01
  5.442492580E-01  7.443082909E-01
   p   1
  1.687144782E-01  1.000000000E+00
   d   1
  8.000000000E-01  1.000000000E+00
 
   4
   s   6
  3.047524880E+03  1.834737132E-03
  4.573695180E+02  1.403732281E-02
  1.039486850E+02  6.884262227E-02
  2.921015530E+01  2.321844432E-01
  9.286662960E+00  4.679413484E-01
  3.163926960E+00  3.623119853E-01
   s   3
  7.868272350E+00 -1.193324198E-01
  1.881288540E+00 -1.608541517E-01
  5.442492580E-01  1.143456438E+00
   s   1
  1.687144782E-01  1.000000000E+00
   p   3
  7.868272350E+00  6.899906659E-02
  1.881288540E+00  3.164239610E-01
  5.442492580E-01  7.443082909E-01
   p   1
  1.687144782E-01  1.000000000E+00
   d   1
  8.000000000E-01  1.000000000E+00
 
   5
   s   3
  1.873113696E+01  3.349460434E-02
  2.825394365E+00  2.347269535E-01
  6.401216923E-01  8.137573261E-01
   s   1
  1.612777588E-01  1.000000000E+00
 
   6
   s   3
  1.873113696E+01  3.349460434E-02
  2.825394365E+00  2.347269535E-01
  6.401216923E-01  8.137573261E-01
   s   1
  1.612777588E-01  1.000000000E+00
 
   7
   s   6
  3.047524880E+03  1.834737132E-03
  4.573695180E+02  1.403732281E-02
  1.039486850E+02  6.884262227E-02
  2.921015530E+01  2.321844432E-01
  9.286662960E+00  4.679413484E-01
  3.163926960E+00  3.623119853E-01
   s   3
  7.868272350E+00 -1.193324198E-01
  1.881288540E+00 -1.608541517E-01
  5.442492580E-01  1.143456438E+00
   s   1
  1.687144782E-01  1.000000000E+00
   p   3
  7.868272350E+00  6.899906659E-02
  1.881288540E+00  3.164239610E-01
  5.442492580E-01  7.443082909E-01
   p   1
  1.687144782E-01  1.000000000E+00
   d   1
  8.000000000E-01  1.000000000E+00
 
   8
   s   6
  3.047524880E+03  1.834737132E-03
  4.573695180E+02  1.403732281E-02
  1.039486850E+02  6.884262227E-02
  2.921015530E+01  2.321844432E-01
  9.286662960E+00  4.679413484E-01
  3.163926960E+00  3.623119853E-01
   s   3
  7.868272350E+00 -1.193324198E-01
  1.881288540E+00 -1.608541517E-01
  5.442492580E-01  1.143456438E+00
   s   1
  1.687144782E-01  1.000000000E+00
   p   3
  7.868272350E+00  6.899906659E-02
  1.881288540E+00  3.164239610E-01
  5.442492580E-01  7.443082909E-01
   p   1
  1.687144782E-01  1.000000000E+00
   d   1
  8.000000000E-01  1.000000000E+00
 
   9
   s   3
  1.873113696E+01  3.349460434E-02
  2.825394365E+00  2.347269535E-01
  6.401216923E-01  8.137573261E-01
   s   1
  1.612777588E-01  1.000000000E+00
 
  10
   s   3
  1.873113696E+01  3.349460434E-02
  2.825394365E+00  2.347269535E-01
  6.401216923E-01  8.137573261E-01
   s   1
  1.612777588E-01  1.000000000E+00
 
[MO]
Sym=     1a1 
Ene=   -11.2590
Spin= Alpha
Occup=    2.00000
   1        -0.00004412
   2         0.00030079
   3        -0.00241741
   4         0.00017901
   5        -0.00015864
   6         0.00000000
   7        -0.00116475
   8         0.00151352
   9         0.00000000
  10         0.00006854
  11         0.00006563
  12         0.00000768
  13        -0.00006645
  14         0.00000000
  15         0.00000000
  16        -0.00004412
  17         0.00030079
  18        -0.00241741
  19        -0.00017901
  20        -0.00015864
  21         0.00000000
  22         0.00116475
  23         0.00151352
  24         0.00000000
  25         0.00006854
  26         0.00006563
  27         0.00000768
  28         0.00006645
  29         0.00000000
  30         0.00000000
  31         0.00676010
  32         0.00021337
  33         0.00466398
  34        -0.00008696
  35         0.00019993
  36         0.00000000
  37        -0.00055728
  38         0.00078597
  39         0.00000000
  40        -0.00025778
  41        -0.00053304
  42        -0.00015385
  43         0.00019432
  44         0.00000000
  45         0.00000000
  46         0.00676010
  47         0.00021337
  48         0.00466398
  49         0.00008696
  50         0.00019993
  51         0.00000000
  52         0.00055728
  53         0.00078597
  54         0.00000000
  55        -0.00025778
  56        -0.00053304
  57        -0.00015385
  58        -0.00019432
  59         0.00000000
  60         0.00000000
  61        -0.00011935
  62        -0.00061305
  63        -0.00011935
  64        -0.00061305
  65         0.70375717
  66         0.01941550
  67        -0.00537338
  68        -0.00029059
  69         0.00033426
  70         0.00000000
  71         0.00078254
  72        -0.00020655
  73         0.00000000
  74        -0.00131892
  75        -0.00149930
  76        -0.00178263
  77        -0.00008035
  78         0.00000000
  79         0.00000000
  80         0.70375717
  81         0.01941550
  82        -0.00537338
  83         0.00029059
  84         0.00033426
  85         0.00000000
  86        -0.00078254
  87        -0.00020655
  88         0.00000000
  89        -0.00131892
  90        -0.00149930
  91        -0.00178263
  92         0.00008035
  93         0.00000000
  94         0.00000000
  95        -0.00008166
  96         0.00136393
  97        -0.00008166
  98         0.00136393
Sym=     2a1 
Ene=   -11.2180
Spin= Alpha
Occup=    2.00000
   1         0.20385425
   2         0.00516163
   3         0.00122910
   4        -0.00014590
   5         0.00008822
   6         0.00000000
   7         0.00071673
   8        -0.00118419
   9         0.00000000
  10        -0.00062106
  11        -0.00043529
  12        -0.00076445
  13        -0.00024885
  14         0.00000000
  15         0.00000000
  16         0.20385425
  17         0.00516163
  18         0.00122910
  19         0.00014590
  20         0.00008822
  21         0.00000000
  22        -0.00071673
  23        -0.00118419
  24         0.00000000
  25        -0.00062106
  26        -0.00043529
  27        -0.00076445
  28         0.00024885
  29         0.00000000
  30         0.00000000
  31         0.67320607
  32         0.01864601
  33        -0.00562572
  34        -0.00023381
  35         0.00002254
  36         0.00000000
  37         0.00017503
  38         0.00018477
  39         0.00000000
  40        -0.00145399
  41        -0.00091159
  42        -0.00211550
  43        -0.00099889
  44         0.00000000
  45         0.00000000
  46         0.67320607
  47         0.01864601
  48        -0.00562572
  49         0.00023381
  50         0.00002254
  51         0.00000000
  52        -0.00017503
  53         0.00018477
  54         0.00000000
  55        -0.00145399
  56        -0.00091159
  57        -0.00211550
  58         0.00099889
  59         0.00000000
  60         0.00000000
  61        -0.00028070
  62         0.00055323
  63        -0.00028070
  64         0.00055323
  65        -0.00682625
  66        -0.00021426
  67         0.00161861
  68         0.00034471
  69        -0.00051828
  70         0.00000000
  71        -0.00042767
  72         0.00049461
  73         0.00000000
  74        -0.00031075
  75        -0.00060244
  76        -0.00016499
  77         0.00036667
  78         0.00000000
  79         0.00000000
  80        -0.00682625
  81        -0.00021426
  82         0.00161861
  83        -0.00034471
  84        -0.00051828
  85         0.00000000
  86         0.00042767
  87         0.00049461
  88         0.00000000
  89        -0.00031075
  90        -0.00060244
  91        -0.00016499
  92        -0.00036667
  93         0.00000000
  94         0.00000000
  95        -0.00008465
  96         0.00008569
  97        -0.00008465
  98         0.00008569
Sym=     3a1 
Ene=   -11.2120
Spin= Alpha
Occup=    2.00000
   1        -0.67357231
   2        -0.01908951
   3         0.00954708
   4        -0.00034534
   5         0.00036364
   6         0.00000000
   7         0.00172905
   8        -0.00235729
   9         0.00000000
  10         0.00150120
  11         0.00115488
  12         0.00196883
  13         0.00070876
  14         0.00000000
  15         0.00000000
  16        -0.67357231
  17        -0.01908951
  18         0.00954708
  19         0.00034534
  20         0.00036364
  21         0.00000000
  22        -0.00172905
  23        -0.00235729
  24         0.00000000
  25         0.00150120
  26         0.00115488
  27         0.00196883
  28        -0.00070876
  29         0.00000000
  30         0.00000000
  31         0.20500167
  32         0.00621693
  33        -0.00779118
  34        -0.00016241
  35         0.00008115
  36         0.00000000
  37         0.00201322
  38        -0.00252497
  39         0.00000000
  40        -0.00036421
  41        -0.00029003
  42        -0.00044562
  43        -0.00012513
  44         0.00000000
  45         0.00000000
  46         0.20500167
  47         0.00621693
  48        -0.00779118
  49         0.00016241
  50         0.00008115
  51         0.00000000
  52        -0.00201322
  53        -0.00252497
  54         0.00000000
  55        -0.00036421
  56        -0.00029003
  57        -0.00044562
  58         0.00012513
  59         0.00000000
  60         0.00000000
  61         0.00064673
  62        -0.00050036
  63         0.00064673
  64        -0.00050036
  65        -0.00212721
  66        -0.00010194
  67         0.00003108
  68         0.00002030
  69        -0.00005707
  70         0.00000000
  71        -0.00012333
  72         0.00010657
  73         0.00000000
  74        -0.00005929
  75        -0.00010195
  76        -0.00005937
  77         0.00004011
  78         0.00000000
  79         0.00000000
  80        -0.00212721
  81        -0.00010194
  82         0.00003108
  83        -0.00002030
  84        -0.00005707
  85         0.00000000
  86         0.00012333
  87         0.00010657
  88         0.00000000
  89        -0.00005929
  90        -0.00010195
  91        -0.00005937
  92        -0.00004011
  93         0.00000000
  94         0.00000000
  95        -0.00004219
  96         0.00004748
  97        -0.00004219
  98         0.00004748
Sym=     4a1 
Ene=    -1.0847
Spin= Alpha
Occup=    2.00000
   1         0.00212543
   2        -0.00578446
   3         0.02302449
   4        -0.00638256
   5         0.00526879
   6         0.00000000
   7         0.01009911
   8        -0.01663110
   9         0.00000000
  10        -0.00025157
  11        -0.00100077
  12         0.00086035
  13         0.00170738
  14         0.00000000
  15         0.00000000
  16         0.00212543
  17        -0.00578446
  18         0.02302449
  19         0.00638256
  20         0.00526879
  21         0.00000000
  22        -0.01009911
  23        -0.01663110
  24         0.00000000
  25        -0.00025157
  26        -0.00100077
  27         0.00086035
  28        -0.00170738
  29         0.00000000
  30         0.00000000
  31        -0.04658574
  32         0.09238018
  33         0.01925686
  34         0.06147494
  35        -0.08044264
  36         0.00000000
  37         0.02466409
  38        -0.03333883
  39         0.00000000
  40         0.00389114
  41         0.00818242
  42        -0.00388502
  43        -0.01105470
  44         0.00000000
  45         0.00000000
  46        -0.04658574
  47         0.09238018
  48         0.01925686
  49        -0.06147494
  50        -0.08044264
  51         0.00000000
  52        -0.02466409
  53        -0.03333883
  54         0.00000000
  55         0.00389114
  56         0.00818242
  57        -0.00388502
  58         0.01105470
  59         0.00000000
  60         0.00000000
  61         0.00335186
  62         0.01006516
  63         0.00335186
  64         0.01006516
  65        -0.15205602
  66         0.29336417
  67         0.20042224
  68         0.08040830
  69         0.02174590
  70         0.00000000
  71         0.00681257
  72        -0.00435186
  73         0.00000000
  74         0.01531708
  75         0.00400028
  76        -0.01220921
  77         0.00126872
  78         0.00000000
  79         0.00000000
  80        -0.15205602
  81         0.29336417
  82         0.20042224
  83        -0.08040830
  84         0.02174590
  85         0.00000000
  86        -0.00681257
  87        -0.00435186
  88         0.00000000
  89         0.01531708
  90         0.00400028
  91        -0.01220921
  92        -0.00126872
  93         0.00000000
  94         0.00000000
  95         0.07609093
  96         0.00842819
  97         0.07609093
  98         0.00842819
Sym=     5a1 
Ene=    -0.7518
Spin= Alpha
Occup=    2.00000
   1        -0.09833765
   2         0.19521577
   3         0.09800753
   4        -0.13131464
   5         0.17908482
   6         0.00000000
   7        -0.09169713
   8         0.12247053
   9         0.00000000
  10         0.00667586
  11         0.01816175
  12        -0.00676458
  13        -0.02118553
  14         0.00000000
  15         0.00000000
  16        -0.09833765
  17         0.19521577
  18         0.09800753
  19         0.13131464
  20         0.17908482
  21         0.00000000
  22         0.09169713
  23         0.12247053
  24         0.00000000
  25         0.00667586
  26         0.01816175
  27        -0.00676458
  28         0.02118553
  29         0.00000000
  30         0.00000000
  31         0.01222202
  32        -0.03002396
  33         0.05157254
  34         0.01371242
  35        -0.01556255
  36         0.00000000
  37        -0.04314289
  38         0.05908355
  39         0.00000000
  40        -0.00174834
  41        -0.00413409
  42         0.00192582
  43         0.00547977
  44         0.00000000
  45         0.00000000
  46         0.01222202
  47        -0.03002396
  48         0.05157254
  49        -0.01371242
  50        -0.01556255
  51         0.00000000
  52         0.04314289
  53         0.05908355
  54         0.00000000
  55        -0.00174834
  56        -0.00413409
  57         0.00192582
  58        -0.00547977
  59         0.00000000
  60         0.00000000
  61         0.21716276
  62         0.09734764
  63         0.21716276
  64         0.09734764
  65        -0.00150340
  66         0.00185691
  67         0.03992445
  68         0.00394883
  69        -0.00003369
  70         0.00000000
  71        -0.00814188
  72         0.01578394
  73         0.00000000
  74         0.00100962
  75         0.00149278
  76        -0.00004453
  77        -0.00064662
  78         0.00000000
  79         0.00000000
  80        -0.00150340
  81         0.00185691
  82         0.03992445
  83        -0.00394883
  84        -0.00003369
  85         0.00000000
  86         0.00814188
  87         0.01578394
  88         0.00000000
  89         0.00100962
  90         0.00149278
  91        -0.00004453
  92         0.00064662
  93         0.00000000
  94         0.00000000
  95         0.00017640
  96         0.00263345
  97         0.00017640
  98         0.00263345
Sym=     6a1 
Ene=    -0.7322
Spin= Alpha
Occup=    2.00000
   1        -0.00672526
   2         0.01315318
   3         0.05988086
   4         0.01999330
   5        -0.01997671
   6         0.00000000
   7         0.02174553
   8        -0.02602987
   9         0.00000000
  10        -0.00022085
  11         0.00062680
  12        -0.00118266
  13        -0.00168982
  14         0.00000000
  15         0.00000000
  16        -0.00672526
  17         0.01315318
  18         0.05988086
  19        -0.01999330
  20        -0.01997671
  21         0.00000000
  22        -0.02174553
  23        -0.02602987
  24         0.00000000
  25        -0.00022085
  26         0.00062680
  27        -0.00118266
  28         0.00168982
  29         0.00000000
  30         0.00000000
  31         0.07786570
  32        -0.15593329
  33        -0.15022188
  34        -0.10929728
  35         0.14657736
  36         0.00000000
  37         0.00152734
  38         0.00919595
  39         0.00000000
  40        -0.00248206
  41        -0.00723572
  42         0.00452655
  43         0.01059685
  44         0.00000000
  45         0.00000000
  46         0.07786570
  47        -0.15593329
  48        -0.15022188
  49         0.10929728
  50         0.14657736
  51         0.00000000
  52        -0.00152734
  53         0.00919595
  54         0.00000000
  55        -0.00248206
  56        -0.00723572
  57         0.00452655
  58        -0.01059685
  59         0.00000000
  60         0.00000000
  61        -0.01050418
  62        -0.00574629
  63        -0.01050418
  64        -0.00574629
  65        -0.02515340
  66         0.05033459
  67         0.01961786
  68         0.16987189
  69        -0.27650932
  70         0.00000000
  71         0.05044045
  72        -0.11319917
  73         0.00000000
  74         0.00695715
  75        -0.00490249
  76        -0.00061510
  77         0.01234456
  78         0.00000000
  79         0.00000000
  80        -0.02515340
  81         0.05033459
  82         0.01961786
  83        -0.16987189
  84        -0.27650932
  85         0.00000000
  86        -0.05044045
  87        -0.11319917
  88         0.00000000
  89         0.00695715
  90        -0.00490249
  91        -0.00061510
  92        -0.01234456
  93         0.00000000
  94         0.00000000
  95         0.10885943
  96         0.05451903
  97         0.10885943
  98         0.05451903
Sym=     7a1 
Ene=    -0.6313
Spin= Alpha
Occup=    2.00000
   1         0.00316953
   2        -0.00577939
   3        -0.01971100
   4         0.00449335
   5         0.01879075
   6         0.00000000
   7         0.00607613
   8         0.01874833
   9         0.00000000
  10        -0.00109691
  11         0.00177231
  12         0.00023089
  13         0.00037994
  14         0.00000000
  15         0.00000000
  16         0.00316953
  17        -0.00577939
  18        -0.01971100
  19        -0.00449335
  20         0.01879075
  21         0.00000000
  22        -0.00607613
  23         0.01874833
  24         0.00000000
  25        -0.00109691
  26         0.00177231
  27         0.00023089
  28        -0.00037994
  29         0.00000000
  30         0.00000000
  31        -0.02234436
  32         0.04355630
  33         0.05661706
  34         0.00854206
  35        -0.06426431
  36         0.00000000
  37         0.01418850
  38        -0.00019338
  39         0.00000000
  40        -0.00887060
  41         0.00906390
  42        -0.00138855
  43         0.00213257
  44         0.00000000
  45         0.00000000
  46        -0.02234436
  47         0.04355630
  48         0.05661706
  49        -0.00854206
  50        -0.06426431
  51         0.00000000
  52        -0.01418850
  53        -0.00019338
  54         0.00000000
  55        -0.00887060
  56         0.00906390
  57        -0.00138855
  58        -0.00213257
  59         0.00000000
  60         0.00000000
  61         0.00485227
  62         0.00390606
  63         0.00485227
  64         0.00390606
  65         0.01497766
  66        -0.03461890
  67         0.00586714
  68        -0.37158022
  69        -0.14319026
  70         0.00000000
  71        -0.13984856
  72        -0.06511707
  73         0.00000000
  74        -0.01160364
  75         0.02307281
  76        -0.00103541
  77         0.00232638
  78         0.00000000
  79         0.00000000
  80         0.01497766
  81        -0.03461890
  82         0.00586714
  83         0.37158022
  84        -0.14319026
  85         0.00000000
  86         0.13984856
  87        -0.06511707
  88         0.00000000
  89        -0.01160364
  90         0.02307281
  91        -0.00103541
  92        -0.00232638
  93         0.00000000
  94         0.00000000
  95         0.16964635
  96         0.12255663
  97         0.16964635
  98         0.12255663
Sym=     8a1 
Ene=    -0.9169
Spin= Alpha
Occup=    1.99355
   1        -0.10384997
   2         0.18477499
   3         0.21218499
   4         0.13530429
   5        -0.18306187
   6         0.00000000
   7         0.05135476
   8        -0.06912866
   9         0.00000000
  10        -0.00118225
  11         0.00310581
  12        -0.00771272
  13        -0.00953112
  14         0.00000000
  15         0.00000000
  16        -0.10384997
  17         0.18477499
  18         0.21218499
  19        -0.13530429
  20        -0.18306187
  21         0.00000000
  22        -0.05135476
  23        -0.06912866
  24         0.00000000
  25        -0.00118225
  26         0.00310581
  27        -0.00771272
  28         0.00953112
  29         0.00000000
  30         0.00000000
  31        -0.10527817
  32         0.19147249
  33         0.09145927
  34        -0.13791195
  35         0.18010156
  36         0.00000000
  37         0.03111423
  38        -0.04755596
  39         0.00000000
  40        -0.00052046
  41         0.00238508
  42        -0.00709225
  43        -0.00863666
  44         0.00000000
  45         0.00000000
  46        -0.10527817
  47         0.19147249
  48         0.09145927
  49         0.13791195
  50         0.18010156
  51         0.00000000
  52        -0.03111423
  53        -0.04755596
  54         0.00000000
  55        -0.00052046
  56         0.00238508
  57        -0.00709225
  58         0.00863666
  59         0.00000000
  60         0.00000000
  61        -0.03504017
  62        -0.03963150
  63        -0.03504017
  64        -0.03963150
  65         0.01194671
  66        -0.01990923
  67        -0.09175014
  68         0.02432892
  69        -0.03301621
  70         0.00000000
  71         0.03012188
  72        -0.04392363
  73         0.00000000
  74         0.00021511
  75        -0.00018461
  76         0.00162274
  77        -0.00080825
  78         0.00000000
  79         0.00000000
  80         0.01194671
  81        -0.01990923
  82        -0.09175014
  83        -0.02432892
  84        -0.03301621
  85         0.00000000
  86        -0.03012188
  87        -0.04392363
  88         0.00000000
  89         0.00021511
  90        -0.00018461
  91         0.00162274
  92         0.00080825
  93         0.00000000
  94         0.00000000
  95         0.00138043
  96        -0.00291718
  97         0.00138043
  98        -0.00291718
Sym=     9a1 
Ene=    -0.0019
Spin= Alpha
Occup=    1.93934
   1         0.00172200
   2        -0.00559091
   3         0.02163290
   4         0.22798776
   5         0.17230558
   6         0.00000000
   7         0.16090535
   8         0.09746947
   9         0.00000000
  10         0.01279828
  11        -0.01281975
  12        -0.00053206
  13        -0.00422774
  14         0.00000000
  15         0.00000000
  16         0.00172200
  17        -0.00559091
  18         0.02163290
  19        -0.22798776
  20         0.17230558
  21         0.00000000
  22        -0.16090535
  23         0.09746947
  24         0.00000000
  25         0.01279828
  26        -0.01281975
  27        -0.00053206
  28         0.00422774
  29         0.00000000
  30         0.00000000
  31        -0.00208403
  32         0.00251380
  33         0.00069880
  34         0.23061575
  35         0.17341051
  36         0.00000000
  37         0.16482012
  38         0.08392932
  39         0.00000000
  40        -0.01331210
  41         0.01252036
  42        -0.00034029
  43         0.00514941
  44         0.00000000
  45         0.00000000
  46        -0.00208403
  47         0.00251380
  48         0.00069880
  49        -0.23061575
  50         0.17341051
  51         0.00000000
  52        -0.16482012
  53         0.08392932
  54         0.00000000
  55        -0.01331210
  56         0.01252036
  57        -0.00034029
  58        -0.00514941
  59         0.00000000
  60         0.00000000
  61         0.00065095
  62         0.00674189
  63         0.00065095
  64         0.00674189
  65         0.00849871
  66        -0.01977953
  67        -0.04887555
  68        -0.02753983
  69        -0.01127134
  70         0.00000000
  71        -0.01258849
  72        -0.01956396
  73         0.00000000
  74        -0.00989367
  75         0.01145633
  76        -0.00036597
  77         0.00552781
  78         0.00000000
  79         0.00000000
  80         0.00849871
  81        -0.01977953
  82        -0.04887555
  83         0.02753983
  84        -0.01127134
  85         0.00000000
  86         0.01258849
  87        -0.01956396
  88         0.00000000
  89        -0.00989367
  90         0.01145633
  91        -0.00036597
  92        -0.00552781
  93         0.00000000
  94         0.00000000
  95         0.03008809
  96         0.05172200
  97         0.03008809
  98         0.05172200
Sym=    10a1 
Ene=    -0.0003
Spin= Alpha
Occup=    0.06257
   1         0.00124776
   2        -0.00290386
   3         0.00760609
   4        -0.37162828
   5        -0.26919719
   6         0.00000000
   7        -0.17476400
   8        -0.13670642
   9         0.00000000
  10         0.00379461
  11        -0.00315811
  12        -0.00046733
  13        -0.00072729
  14         0.00000000
  15         0.00000000
  16         0.00124776
  17        -0.00290386
  18         0.00760609
  19         0.37162828
  20        -0.26919719
  21         0.00000000
  22         0.17476400
  23        -0.13670642
  24         0.00000000
  25         0.00379461
  26        -0.00315811
  27        -0.00046733
  28         0.00072729
  29         0.00000000
  30         0.00000000
  31        -0.00181521
  32         0.01370589
  33        -0.00321360
  34         0.36611240
  35         0.27031674
  36         0.00000000
  37         0.18414707
  38         0.12730607
  39         0.00000000
  40         0.00208860
  41        -0.00407168
  42        -0.00021994
  43         0.00250552
  44         0.00000000
  45         0.00000000
  46        -0.00181521
  47         0.01370589
  48        -0.00321360
  49        -0.36611240
  50         0.27031674
  51         0.00000000
  52        -0.18414707
  53         0.12730607
  54         0.00000000
  55         0.00208860
  56        -0.00407168
  57        -0.00021994
  58        -0.00250552
  59         0.00000000
  60         0.00000000
  61        -0.00063133
  62         0.00220278
  63        -0.00063133
  64         0.00220278
  65         0.01064536
  66        -0.02447082
  67        -0.01851789
  68        -0.04996253
  69        -0.02857725
  70         0.00000000
  71        -0.04119267
  72        -0.02751195
  73         0.00000000
  74        -0.01179306
  75         0.01461701
  76        -0.00032908
  77         0.00493014
  78         0.00000000
  79         0.00000000
  80         0.01064536
  81        -0.02447082
  82        -0.01851789
  83         0.04996253
  84        -0.02857725
  85         0.00000000
  86         0.04119267
  87        -0.02751195
  88         0.00000000
  89        -0.01179306
  90         0.01461701
  91        -0.00032908
  92        -0.00493014
  93         0.00000000
  94         0.00000000
  95         0.04159677
  96         0.04590883
  97         0.04159677
  98         0.04590883
Sym=    11a1 
Ene=     0.2729
Spin= Alpha
Occup=    0.00000
   1        -0.06860486
   2         0.13108710
   3        -0.48520390
   4        -0.07858753
   5         0.10741207
   6         0.00000000
   7        -1.21124114
   8         1.58260724
   9         0.00000000
  10        -0.00311073
  11        -0.01315009
  12         0.00767515
  13         0.01696689
  14         0.00000000
  15         0.00000000
  16        -0.06860486
  17         0.13108710
  18        -0.48520390
  19         0.07858753
  20         0.10741207
  21         0.00000000
  22         1.21124114