[Molden Format]
[N_Atoms]
                   10
[Atoms] (AU)
C1          1      6          -4.17334117      1.98618035      0.00000000
C1          2      6           4.17334117      1.98618035      0.00000000
C2          3      6          -2.81680496      0.19716478      0.00000000
C2          4      6           2.81680496      0.19716478      0.00000000
H3          5      1           5.35837138      3.59381466      0.00000000
H3          6      1          -5.35837138      3.59381466      0.00000000
C4          7      6          -1.25521675     -2.01758573      0.00000000
C4          8      6           1.25521675     -2.01758573      0.00000000
H5          9      1          -2.23214146     -3.79902477      0.00000000
H5         10      1           2.23214146     -3.79902477      0.00000000
[Charge] (Mulliken)
 -0.99770706771815654     
 -0.99770706771815654     
  0.30378223458257025     
  0.30378223458257025     
  0.57406356945138715     
  0.57406356945138715     
 -0.31816777982766631     
 -0.31816777982766631     
  0.43802904351150085     
  0.43802904351150085     
[GTO] (AU)
   1
   s   6
  3.047524880E+03  1.834737132E-03
  4.573695180E+02  1.403732281E-02
  1.039486850E+02  6.884262227E-02
  2.921015530E+01  2.321844432E-01
  9.286662960E+00  4.679413484E-01
  3.163926960E+00  3.623119853E-01
   s   3
  7.868272350E+00 -1.193324198E-01
  1.881288540E+00 -1.608541517E-01
  5.442492580E-01  1.143456438E+00
   s   1
  1.687144782E-01  1.000000000E+00
   p   3
  7.868272350E+00  6.899906659E-02
  1.881288540E+00  3.164239610E-01
  5.442492580E-01  7.443082909E-01
   p   1
  1.687144782E-01  1.000000000E+00
   d   1
  8.000000000E-01  1.000000000E+00
 
   2
   s   6
  3.047524880E+03  1.834737132E-03
  4.573695180E+02  1.403732281E-02
  1.039486850E+02  6.884262227E-02
  2.921015530E+01  2.321844432E-01
  9.286662960E+00  4.679413484E-01
  3.163926960E+00  3.623119853E-01
   s   3
  7.868272350E+00 -1.193324198E-01
  1.881288540E+00 -1.608541517E-01
  5.442492580E-01  1.143456438E+00
   s   1
  1.687144782E-01  1.000000000E+00
   p   3
  7.868272350E+00  6.899906659E-02
  1.881288540E+00  3.164239610E-01
  5.442492580E-01  7.443082909E-01
   p   1
  1.687144782E-01  1.000000000E+00
   d   1
  8.000000000E-01  1.000000000E+00
 
   3
   s   6
  3.047524880E+03  1.834737132E-03
  4.573695180E+02  1.403732281E-02
  1.039486850E+02  6.884262227E-02
  2.921015530E+01  2.321844432E-01
  9.286662960E+00  4.679413484E-01
  3.163926960E+00  3.623119853E-01
   s   3
  7.868272350E+00 -1.193324198E-01
  1.881288540E+00 -1.608541517E-01
  5.442492580E-01  1.143456438E+00
   s   1
  1.687144782E-01  1.000000000E+00
   p   3
  7.868272350E+00  6.899906659E-02
  1.881288540E+00  3.164239610E-01
  5.442492580E-01  7.443082909E-01
   p   1
  1.687144782E-01  1.000000000E+00
   d   1
  8.000000000E-01  1.000000000E+00
 
   4
   s   6
  3.047524880E+03  1.834737132E-03
  4.573695180E+02  1.403732281E-02
  1.039486850E+02  6.884262227E-02
  2.921015530E+01  2.321844432E-01
  9.286662960E+00  4.679413484E-01
  3.163926960E+00  3.623119853E-01
   s   3
  7.868272350E+00 -1.193324198E-01
  1.881288540E+00 -1.608541517E-01
  5.442492580E-01  1.143456438E+00
   s   1
  1.687144782E-01  1.000000000E+00
   p   3
  7.868272350E+00  6.899906659E-02
  1.881288540E+00  3.164239610E-01
  5.442492580E-01  7.443082909E-01
   p   1
  1.687144782E-01  1.000000000E+00
   d   1
  8.000000000E-01  1.000000000E+00
 
   5
   s   3
  1.873113696E+01  3.349460434E-02
  2.825394365E+00  2.347269535E-01
  6.401216923E-01  8.137573261E-01
   s   1
  1.612777588E-01  1.000000000E+00
 
   6
   s   3
  1.873113696E+01  3.349460434E-02
  2.825394365E+00  2.347269535E-01
  6.401216923E-01  8.137573261E-01
   s   1
  1.612777588E-01  1.000000000E+00
 
   7
   s   6
  3.047524880E+03  1.834737132E-03
  4.573695180E+02  1.403732281E-02
  1.039486850E+02  6.884262227E-02
  2.921015530E+01  2.321844432E-01
  9.286662960E+00  4.679413484E-01
  3.163926960E+00  3.623119853E-01
   s   3
  7.868272350E+00 -1.193324198E-01
  1.881288540E+00 -1.608541517E-01
  5.442492580E-01  1.143456438E+00
   s   1
  1.687144782E-01  1.000000000E+00
   p   3
  7.868272350E+00  6.899906659E-02
  1.881288540E+00  3.164239610E-01
  5.442492580E-01  7.443082909E-01
   p   1
  1.687144782E-01  1.000000000E+00
   d   1
  8.000000000E-01  1.000000000E+00
 
   8
   s   6
  3.047524880E+03  1.834737132E-03
  4.573695180E+02  1.403732281E-02
  1.039486850E+02  6.884262227E-02
  2.921015530E+01  2.321844432E-01
  9.286662960E+00  4.679413484E-01
  3.163926960E+00  3.623119853E-01
   s   3
  7.868272350E+00 -1.193324198E-01
  1.881288540E+00 -1.608541517E-01
  5.442492580E-01  1.143456438E+00
   s   1
  1.687144782E-01  1.000000000E+00
   p   3
  7.868272350E+00  6.899906659E-02
  1.881288540E+00  3.164239610E-01
  5.442492580E-01  7.443082909E-01
   p   1
  1.687144782E-01  1.000000000E+00
   d   1
  8.000000000E-01  1.000000000E+00
 
   9
   s   3
  1.873113696E+01  3.349460434E-02
  2.825394365E+00  2.347269535E-01
  6.401216923E-01  8.137573261E-01
   s   1
  1.612777588E-01  1.000000000E+00
 
  10
   s   3
  1.873113696E+01  3.349460434E-02
  2.825394365E+00  2.347269535E-01
  6.401216923E-01  8.137573261E-01
   s   1
  1.612777588E-01  1.000000000E+00
 
[MO]
Sym=     1a1 
Ene=   -11.2490
Spin= Alpha
Occup=    2.00000
   1         0.00021173
   2         0.00025938
   3        -0.00298200
   4         0.00011235
   5        -0.00009740
   6         0.00000000
   7        -0.00135404
   8         0.00172570
   9         0.00000000
  10         0.00006767
  11         0.00004880
  12         0.00000482
  13        -0.00006155
  14         0.00000000
  15         0.00000000
  16         0.00021173
  17         0.00025938
  18        -0.00298200
  19        -0.00011235
  20        -0.00009740
  21         0.00000000
  22         0.00135404
  23         0.00172570
  24         0.00000000
  25         0.00006767
  26         0.00004880
  27         0.00000482
  28         0.00006155
  29         0.00000000
  30         0.00000000
  31         0.00762079
  32         0.00005450
  33         0.00490575
  34        -0.00002514
  35         0.00021034
  36         0.00000000
  37        -0.00080166
  38         0.00110831
  39         0.00000000
  40        -0.00023196
  41        -0.00055110
  42        -0.00015009
  43         0.00018250
  44         0.00000000
  45         0.00000000
  46         0.00762079
  47         0.00005450
  48         0.00490575
  49         0.00002514
  50         0.00021034
  51         0.00000000
  52         0.00080166
  53         0.00110831
  54         0.00000000
  55        -0.00023196
  56        -0.00055110
  57        -0.00015009
  58        -0.00018250
  59         0.00000000
  60         0.00000000
  61        -0.00011088
  62        -0.00065865
  63        -0.00011088
  64        -0.00065865
  65         0.70345535
  66         0.02006395
  67        -0.00493162
  68         0.00047697
  69         0.00039101
  70         0.00000000
  71         0.00100351
  72        -0.00010882
  73         0.00000000
  74        -0.00127491
  75        -0.00163467
  76        -0.00187228
  77        -0.00007474
  78         0.00000000
  79         0.00000000
  80         0.70345535
  81         0.02006395
  82        -0.00493162
  83        -0.00047697
  84         0.00039101
  85         0.00000000
  86        -0.00100351
  87        -0.00010882
  88         0.00000000
  89        -0.00127491
  90        -0.00163467
  91        -0.00187228
  92         0.00007474
  93         0.00000000
  94         0.00000000
  95        -0.00016442
  96         0.00124169
  97        -0.00016442
  98         0.00124169
Sym=     2a1 
Ene=   -11.2120
Spin= Alpha
Occup=    2.00000
   1         0.26151203
   2         0.00650425
   3         0.00034000
   4        -0.00025235
   5         0.00029116
   6         0.00000000
   7         0.00055865
   8        -0.00092490
   9         0.00000000
  10        -0.00073142
  11        -0.00049351
  12        -0.00095661
  13        -0.00036954
  14         0.00000000
  15         0.00000000
  16         0.26151203
  17         0.00650425
  18         0.00034000
  19         0.00025235
  20         0.00029116
  21         0.00000000
  22        -0.00055865
  23        -0.00092490
  24         0.00000000
  25        -0.00073142
  26        -0.00049351
  27        -0.00095661
  28         0.00036954
  29         0.00000000
  30         0.00000000
  31         0.65299942
  32         0.01788972
  33        -0.00518876
  34        -0.00003419
  35        -0.00014344
  36         0.00000000
  37         0.00005814
  38         0.00034860
  39         0.00000000
  40        -0.00144063
  41        -0.00087713
  42        -0.00212626
  43        -0.00103800
  44         0.00000000
  45         0.00000000
  46         0.65299942
  47         0.01788972
  48        -0.00518876
  49         0.00003419
  50        -0.00014344
  51         0.00000000
  52        -0.00005814
  53         0.00034860
  54         0.00000000
  55        -0.00144063
  56        -0.00087713
  57        -0.00212626
  58         0.00103800
  59         0.00000000
  60         0.00000000
  61        -0.00031980
  62         0.00065535
  63        -0.00031980
  64         0.00065535
  65        -0.00745158
  66        -0.00016276
  67         0.00168114
  68         0.00039648
  69        -0.00048077
  70         0.00000000
  71        -0.00041977
  72         0.00051547
  73         0.00000000
  74        -0.00030948
  75        -0.00059793
  76        -0.00016023
  77         0.00037416
  78         0.00000000
  79         0.00000000
  80        -0.00745158
  81        -0.00016276
  82         0.00168114
  83        -0.00039648
  84        -0.00048077
  85         0.00000000
  86         0.00041977
  87         0.00051547
  88         0.00000000
  89        -0.00030948
  90        -0.00059793
  91        -0.00016023
  92        -0.00037416
  93         0.00000000
  94         0.00000000
  95        -0.00008537
  96         0.00007632
  97        -0.00008537
  98         0.00007632
Sym=     3a1 
Ene=   -11.2070
Spin= Alpha
Occup=    2.00000
   1        -0.65346099
   2        -0.01856502
   3         0.01034516
   4        -0.00023126
   5         0.00022133
   6         0.00000000
   7         0.00198302
   8        -0.00272646
   9         0.00000000
  10         0.00149218
  11         0.00117330
  12         0.00193320
  13         0.00066459
  14         0.00000000
  15         0.00000000
  16        -0.65346099
  17        -0.01856502
  18         0.01034516
  19         0.00023126
  20         0.00022133
  21         0.00000000
  22        -0.00198302
  23        -0.00272646
  24         0.00000000
  25         0.00149218
  26         0.00117330
  27         0.00193320
  28        -0.00066459
  29         0.00000000
  30         0.00000000
  31         0.26251467
  32         0.00809267
  33        -0.00879987
  34        -0.00026572
  35         0.00022342
  36         0.00000000
  37         0.00216516
  38        -0.00270782
  39         0.00000000
  40        -0.00054039
  41        -0.00045253
  42        -0.00063876
  43        -0.00014726
  44         0.00000000
  45         0.00000000
  46         0.26251467
  47         0.00809267
  48        -0.00879987
  49         0.00026572
  50         0.00022342
  51         0.00000000
  52        -0.00216516
  53        -0.00270782
  54         0.00000000
  55        -0.00054039
  56        -0.00045253
  57        -0.00063876
  58         0.00014726
  59         0.00000000
  60         0.00000000
  61         0.00058603
  62        -0.00042098
  63         0.00058603
  64        -0.00042098
  65        -0.00280904
  66        -0.00011409
  67         0.00010157
  68         0.00011922
  69        -0.00010531
  70         0.00000000
  71        -0.00011751
  72         0.00012992
  73         0.00000000
  74        -0.00007119
  75        -0.00012750
  76        -0.00006996
  77         0.00005527
  78         0.00000000
  79         0.00000000
  80        -0.00280904
  81        -0.00011409
  82         0.00010157
  83        -0.00011922
  84        -0.00010531
  85         0.00000000
  86         0.00011751
  87         0.00012992
  88         0.00000000
  89        -0.00007119
  90        -0.00012750
  91        -0.00006996
  92        -0.00005527
  93         0.00000000
  94         0.00000000
  95        -0.00005512
  96         0.00005425
  97        -0.00005512
  98         0.00005425
Sym=     4a1 
Ene=    -1.0433
Spin= Alpha
Occup=    2.00000
   1        -0.09889235
   2         0.17725317
   3         0.17635757
   4         0.05849867
   5        -0.07514154
   6         0.00000000
   7         0.01519814
   8        -0.01570692
   9         0.00000000
  10         0.00101486
  11         0.00732055
  12        -0.00659134
  13        -0.01168572
  14         0.00000000
  15         0.00000000
  16        -0.09889235
  17         0.17725317
  18         0.17635757
  19        -0.05849867
  20        -0.07514154
  21         0.00000000
  22        -0.01519814
  23        -0.01570692
  24         0.00000000
  25         0.00101486
  26         0.00732055
  27        -0.00659134
  28         0.01168572
  29         0.00000000
  30         0.00000000
  31        -0.12778213
  32         0.23614199
  33         0.14522409
  34        -0.02990063
  35         0.03023251
  36         0.00000000
  37         0.03215321
  38        -0.04477466
  39         0.00000000
  40         0.00025049
  41         0.00980517
  42        -0.00833760
  43        -0.01384308
  44         0.00000000
  45         0.00000000
  46        -0.12778213
  47         0.23614199
  48         0.14522409
  49         0.02990063
  50         0.03023251
  51         0.00000000
  52        -0.03215321
  53        -0.04477466
  54         0.00000000
  55         0.00025049
  56         0.00980517
  57        -0.00833760
  58         0.01384308
  59         0.00000000
  60         0.00000000
  61         0.03724943
  62         0.00437196
  63         0.03724943
  64         0.00437196
  65        -0.05408092
  66         0.10452814
  67         0.03122662
  68        -0.07887665
  69         0.04346228
  70         0.00000000
  71        -0.02253982
  72        -0.01003622
  73         0.00000000
  74         0.00314287
  75         0.00887383
  76        -0.00471103
  77        -0.00345923
  78         0.00000000
  79         0.00000000
  80        -0.05408092
  81         0.10452814
  82         0.03122662
  83         0.07887665
  84         0.04346228
  85         0.00000000
  86         0.02253982
  87        -0.01003622
  88         0.00000000
  89         0.00314287
  90         0.00887383
  91        -0.00471103
  92         0.00345923
  93         0.00000000
  94         0.00000000
  95         0.04094995
  96         0.01233619
  97         0.04094995
  98         0.01233619
Sym=     5a1 
Ene=    -0.9014
Spin= Alpha
Occup=    2.00000
   1         0.08936786
   2        -0.16605669
   3        -0.13848152
   4        -0.02470995
   5         0.03985352
   6         0.00000000
   7         0.01463677
   8        -0.01088837
   9         0.00000000
  10        -0.00269200
  11        -0.00841703
  12         0.00722624
  13         0.01439205
  14         0.00000000
  15         0.00000000
  16         0.08936786
  17        -0.16605669
  18        -0.13848152
  19         0.02470995
  20         0.03985352
  21         0.00000000
  22        -0.01463677
  23        -0.01088837
  24         0.00000000
  25        -0.00269200
  26        -0.00841703
  27         0.00722624
  28        -0.01439205
  29         0.00000000
  30         0.00000000
  31        -0.00075482
  32         0.01388142
  33        -0.00907980
  34         0.11808890
  35        -0.17967759
  36         0.00000000
  37         0.02008303
  38        -0.01877592
  39         0.00000000
  40        -0.00017917
  41         0.01008295
  42        -0.00091335
  43        -0.00504206
  44         0.00000000
  45         0.00000000
  46        -0.00075482
  47         0.01388142
  48        -0.00907980
  49        -0.11808890
  50        -0.17967759
  51         0.00000000
  52        -0.02008303
  53        -0.01877592
  54         0.00000000
  55        -0.00017917
  56         0.01008295
  57        -0.00091335
  58         0.00504206
  59         0.00000000
  60         0.00000000
  61        -0.05509930
  62        -0.00662527
  63        -0.05509930
  64        -0.00662527
  65        -0.09675942
  66         0.18077406
  67         0.16521762
  68        -0.13959998
  69        -0.00351661
  70         0.00000000
  71        -0.07326381
  72        -0.00305188
  73         0.00000000
  74         0.00419316
  75         0.01276623
  76        -0.00909658
  77         0.00121429
  78         0.00000000
  79         0.00000000
  80        -0.09675942
  81         0.18077406
  82         0.16521762
  83         0.13959998
  84        -0.00351661
  85         0.00000000
  86         0.07326381
  87        -0.00305188
  88         0.00000000
  89         0.00419316
  90         0.01276623
  91        -0.00909658
  92        -0.00121429
  93         0.00000000
  94         0.00000000
  95         0.11209081
  96         0.05411270
  97         0.11209081
  98         0.05411270
Sym=     6a1 
Ene=    -0.7237
Spin= Alpha
Occup=    2.00000
   1        -0.05271638
   2         0.10849989
   3         0.05881363
   4        -0.09721001
   5         0.14410913
   6         0.00000000
   7        -0.05549661
   8         0.08492726
   9         0.00000000
  10         0.00422815
  11         0.01288604
  12        -0.00393979
  13        -0.01371773
  14         0.00000000
  15         0.00000000
  16        -0.05271638
  17         0.10849989
  18         0.05881363
  19         0.09721001
  20         0.14410913
  21         0.00000000
  22         0.05549661
  23         0.08492726
  24         0.00000000
  25         0.00422815
  26         0.01288604
  27        -0.00393979
  28         0.01371773
  29         0.00000000
  30         0.00000000
  31         0.05856150
  32        -0.11835947
  33        -0.04071553
  34        -0.02707208
  35         0.01763150
  36         0.00000000
  37        -0.02781409
  38         0.05239079
  39         0.00000000
  40        -0.00558898
  41        -0.00359722
  42         0.00448006
  43         0.01159978
  44         0.00000000
  45         0.00000000
  46         0.05856150
  47        -0.11835947
  48        -0.04071553
  49         0.02707208
  50         0.01763150
  51         0.00000000
  52         0.02781409
  53         0.05239079
  54         0.00000000
  55        -0.00558898
  56        -0.00359722
  57         0.00448006
  58        -0.01159978
  59         0.00000000
  60         0.00000000
  61         0.14807610
  62         0.07107116
  63         0.14807610
  64         0.07107116
  65        -0.02742925
  66         0.04996185
  67         0.07594578
  68        -0.02871347
  69        -0.21455144
  70         0.00000000
  71        -0.03133813
  72        -0.07593281
  73         0.00000000
  74         0.00214681
  75         0.00711568
  76        -0.00218301
  77         0.00783041
  78         0.00000000
  79         0.00000000
  80        -0.02742925
  81         0.04996185
  82         0.07594578
  83         0.02871347
  84        -0.21455144
  85         0.00000000
  86         0.03133813
  87        -0.07593281
  88         0.00000000
  89         0.00214681
  90         0.00711568
  91        -0.00218301
  92        -0.00783041
  93         0.00000000
  94         0.00000000
  95         0.13680183
  96         0.08209464
  97         0.13680183
  98         0.08209464
Sym=     7a1 
Ene=    -0.6700
Spin= Alpha
Occup=    2.00000
   1        -0.00736923
   2         0.02576459
   3        -0.08320773
   4        -0.15290710
   5         0.19556790
   6         0.00000000
   7        -0.09518394
   8         0.11784373
   9         0.00000000
  10         0.00500492
  11         0.00811346
  12         0.00048304
  13        -0.00678408
  14         0.00000000
  15         0.00000000
  16        -0.00736923
  17         0.02576459
  18        -0.08320773
  19         0.15290710
  20         0.19556790
  21         0.00000000
  22         0.09518394
  23         0.11784373
  24         0.00000000
  25         0.00500492
  26         0.00811346
  27         0.00048304
  28         0.00678408
  29         0.00000000
  30         0.00000000
  31         0.00909392
  32        -0.01139381
  33         0.08344790
  34         0.13920767
  35        -0.17108831
  36         0.00000000
  37        -0.04979443
  38         0.05797727
  39         0.00000000
  40         0.00341478
  41        -0.00112962
  42         0.00196501
  43        -0.00021148
  44         0.00000000
  45         0.00000000
  46         0.00909392
  47        -0.01139381
  48         0.08344790
  49        -0.13920767
  50        -0.17108831
  51         0.00000000
  52         0.04979443
  53         0.05797727
  54         0.00000000
  55         0.00341478
  56        -0.00112962
  57         0.00196501
  58         0.00021148
  59         0.00000000
  60         0.00000000
  61         0.14893321
  62         0.07787508
  63         0.14893321
  64         0.07787508
  65        -0.00237076
  66         0.00229775
  67         0.06693561
  68        -0.01990771
  69         0.22357237
  70         0.00000000
  71        -0.01667641
  72         0.11706533
  73         0.00000000
  74        -0.00009936
  75        -0.00143298
  76        -0.00079781
  77        -0.00791915
  78         0.00000000
  79         0.00000000
  80        -0.00237076
  81         0.00229775
  82         0.06693561
  83         0.01990771
  84         0.22357237
  85         0.00000000
  86         0.01667641
  87         0.11706533
  88         0.00000000
  89        -0.00009936
  90        -0.00143298
  91        -0.00079781
  92         0.00791915
  93         0.00000000
  94         0.00000000
  95        -0.10596774
  96        -0.06062755
  97        -0.10596774
  98        -0.06062755
Sym=     8a1 
Ene=    -0.7910
Spin= Alpha
Occup=    1.98362
   1        -0.00534523
   2         0.00839092
   3         0.06553652
   4         0.00655827
   5        -0.00887365
   6         0.00000000
   7         0.01740820
   8        -0.03347470
   9         0.00000000
  10         0.00119954
  11        -0.00192122
  12        -0.00026527
  13        -0.00042806
  14         0.00000000
  15         0.00000000
  16        -0.00534523
  17         0.00839092
  18         0.06553652
  19        -0.00655827
  20        -0.00887365
  21         0.00000000
  22        -0.01740820
  23        -0.03347470
  24         0.00000000
  25         0.00119954
  26        -0.00192122
  27        -0.00026527
  28         0.00042806
  29         0.00000000
  30         0.00000000
  31         0.01784672
  32        -0.03573676
  33        -0.09433478
  34        -0.00213806
  35         0.06207808
  36         0.00000000
  37         0.01829201
  38        -0.01933521
  39         0.00000000
  40         0.00781444
  41        -0.00387683
  42         0.00053627
  43        -0.00417671
  44         0.00000000
  45         0.00000000
  46         0.01784672
  47        -0.03573676
  48        -0.09433478
  49         0.00213806
  50         0.06207808
  51         0.00000000
  52        -0.01829201
  53        -0.01933521
  54         0.00000000
  55         0.00781444
  56        -0.00387683
  57         0.00053627
  58         0.00417671
  59         0.00000000
  60         0.00000000
  61        -0.00157410
  62         0.00467115
  63        -0.00157410
  64         0.00467115
  65        -0.10836325
  66         0.21590284
  67         0.10428667
  68         0.38735891
  69         0.02170002
  70         0.00000000
  71         0.11833597
  72         0.00202904
  73         0.00000000
  74         0.01553650
  75        -0.01835137
  76        -0.00625390
  77         0.00380994
  78         0.00000000
  79         0.00000000
  80        -0.10836325
  81         0.21590284
  82         0.10428667
  83        -0.38735891
  84         0.02170002
  85         0.00000000
  86        -0.11833597
  87         0.00202904
  88         0.00000000
  89         0.01553650
  90        -0.01835137
  91        -0.00625390
  92        -0.00380994
  93         0.00000000
  94         0.00000000
  95        -0.04425878
  96        -0.06700065
  97        -0.04425878
  98        -0.06700065
Sym=     9a1 
Ene=    -0.0007
Spin= Alpha
Occup=    1.94297
   1         0.00215240
   2        -0.00609909
   3         0.02093938
   4         0.22761904
   5         0.17410245
   6         0.00000000
   7         0.15814012
   8         0.09777976
   9         0.00000000
  10         0.01304356
  11        -0.01306231
  12        -0.00044489
  13        -0.00440266
  14         0.00000000
  15         0.00000000
  16         0.00215240
  17        -0.00609909
  18         0.02093938
  19        -0.22761904
  20         0.17410245
  21         0.00000000
  22        -0.15814012
  23         0.09777976
  24         0.00000000
  25         0.01304356
  26        -0.01306231
  27        -0.00044489
  28         0.00440266
  29         0.00000000
  30         0.00000000
  31        -0.00140056
  32         0.00087122
  33         0.00087507
  34         0.23208667
  35         0.17021962
  36         0.00000000
  37         0.16154241
  38         0.08260790
  39         0.00000000
  40        -0.01390226
  41         0.01290357
  42        -0.00031734
  43         0.00558852
  44         0.00000000
  45         0.00000000
  46        -0.00140056
  47         0.00087122
  48         0.00087507
  49        -0.23208667
  50         0.17021962
  51         0.00000000
  52        -0.16154241
  53         0.08260790
  54         0.00000000
  55        -0.01390226
  56         0.01290357
  57        -0.00031734
  58        -0.00558852
  59         0.00000000
  60         0.00000000
  61         0.00068376
  62         0.00642748
  63         0.00068376
  64         0.00642748
  65         0.01261105
  66        -0.02874458
  67        -0.05218873
  68        -0.04329537
  69        -0.01225763
  70         0.00000000
  71        -0.01517206
  72        -0.01917068
  73         0.00000000
  74        -0.01008400
  75         0.01232882
  76        -0.00019964
  77         0.00523285
  78         0.00000000
  79         0.00000000
  80         0.01261105
  81        -0.02874458
  82        -0.05218873
  83         0.04329537
  84        -0.01225763
  85         0.00000000
  86         0.01517206
  87        -0.01917068
  88         0.00000000
  89        -0.01008400
  90         0.01232882
  91        -0.00019964
  92        -0.00523285
  93         0.00000000
  94         0.00000000
  95         0.03179972
  96         0.05455072
  97         0.03179972
  98         0.05455072
Sym=    10a1 
Ene=     0.0232
Spin= Alpha
Occup=    0.05900
   1         0.00026629
   2         0.00150970
   3         0.02628905
   4        -0.36793054
   5        -0.27260999
   6         0.00000000
   7        -0.17549562
   8        -0.15023407
   9         0.00000000
  10         0.00655001
  11        -0.00625922
  12        -0.00057835
  13        -0.00129992
  14         0.00000000
  15         0.00000000
  16         0.00026629
  17         0.00150970
  18         0.02628905
  19         0.36793054
  20        -0.27260999
  21         0.00000000
  22         0.17549562
  23        -0.15023407
  24         0.00000000
  25         0.00655001
  26        -0.00625922
  27        -0.00057835
  28         0.00129992
  29         0.00000000
  30         0.00000000
  31         0.00004312
  32         0.00614206
  33        -0.02371015
  34         0.36607246
  35         0.26892435
  36         0.00000000
  37         0.19737397
  38         0.12205861
  39         0.00000000
  40         0.00532276
  41        -0.00684463
  42         0.00026840
  43         0.00003538
  44         0.00000000
  45         0.00000000
  46         0.00004312
  47         0.00614206
  48        -0.02371015
  49        -0.36607246
  50         0.26892435
  51         0.00000000
  52        -0.19737397
  53         0.12205861
  54         0.00000000
  55         0.00532276
  56        -0.00684463
  57         0.00026840
  58        -0.00003538
  59         0.00000000
  60         0.00000000
  61        -0.00101856
  62         0.00337833
  63        -0.00101856
  64         0.00337833
  65         0.01049721
  66        -0.02844182
  67        -0.01794592
  68        -0.05561482
  69        -0.02736304
  70         0.00000000
  71        -0.03619374
  72        -0.02754683
  73         0.00000000
  74        -0.01263490
  75         0.01619261
  76         0.00010698
  77         0.00519341
  78         0.00000000
  79         0.00000000
  80         0.01049721
  81        -0.02844182
  82        -0.01794592
  83         0.05561482
  84        -0.02736304
  85         0.00000000
  86         0.03619374
  87        -0.02754683
  88         0.00000000
  89        -0.01263490
  90         0.01619261
  91         0.00010698
  92        -0.00519341
  93         0.00000000
  94         0.00000000
  95         0.04218925
  96         0.04604318
  97         0.04218925
  98         0.04604318
Sym=    11a1 
Ene=     0.2749
Spin= Alpha
Occup=    0.00000
   1        -0.06499488
   2         0.12577283
   3        -0.69388093
   4        -0.08129091
   5         0.10857353
   6         0.00000000
   7        -1.26540392
   8         1.63269534
   9         0.00000000
  10        -0.00217196
  11        -0.01288940
  12         0.00794217
  13         0.01628559
  14         0.00000000
  15         0.00000000
  16        -0.06499488
  17         0.12577283
  18        -0.69388093
  19         0.08129091
  20         0.10857353
  21         0.00000000
  22         1.26540392