   This run of MOLCAS is using the pymolcas driver

                             OPE
                             OPE          NMOL  CASOP  ENMOLC A   SO
                 OPE        NMOLC        AS  OP EN  MO LC     AS  OP
                OPENM       OL CA        SO  PE NM  OL CA     SOP EN
                OP EN      MO   LC       AS  OP ENMOL  CASO   PENMOL
                OP  EN     MO   LC       AS  OP EN     MO     LC ASO
               OP   E  NMOL  C  AS       OP  EN MO     LC     AS  OP
               OP  E   NMO   LC AS        OPEN  MO     LCASOP EN   M
               O  PEN   MO  LCA  SO
            OPE   NMO   L   CAS    OP
        OPENMOL  CASOP     ENMOL   CASOPE
     OPENMOLCA   SOPENMOLCASOPEN   MOLCASOPE
    OPENMOLCAS   OP           EN   MOL    CAS
    OPENMOLCAS       OP  ENM        O     LCA
    OPENMOLCAS    OPEN  MOLCASO     P  E  NMO
    OPENMOLCAS     OP               E  N  MOL
    OPENMOLCA   SO           PENM   O  L  CAS    OPEN    MO    LCAS
    OPENMOLCA   SOP           ENM   O  L  CAS   OP  EN  MOLC  AS   O
    OPENMOLCA   SOPE           NM      O  LCA   S      OP  EN MO
    OPENMOLC                AS         O  PEN   M      OL  CA  SOPE
    OPENMO        LCASOPE  NMOL        C  ASO   P      ENMOLC     AS
    OPE     NMO      LCA  SO     P     E   NM   OL  CA SO  PE N   MO
          OPENMOLCA            SOPE   NMO        LCAS  O    P  ENMO
     OPENMOLCASOPENMOLCASOPENMOLCASOPENMOLCA
        OPENMOLCASOPENMOLCASOPENMOLCASOPE
            OPENMOLCASOPENMOLCASOPENM
               OPENMOLCASOPENMOLCA        version: 24.02
                   OPENMOLCASO
                       OPE                tag: 428-g03afa2e9a

 OpenMolcas is free software; you can redistribute it and/or modify it
 under the terms of the GNU Lesser General Public License version 2.1.
 OpenMolcas is distributed in the hope that it will be useful, but it
 is provided "as is" and without any express or implied warranties.
 For more details see the full text of the license in the file
 LICENSE or in <http://www.gnu.org/licenses/>.

                 Copyright (C) The OpenMolcas Authors
           For the author list and the recommended citation,
                   consult the file CONTRIBUTORS.md

           *************************************************
           * pymolcas version py2.28                       *
           *   build c4a6d18ded8cb6cad61d2372a9abd97c      *
           *   (after the EMIL interpreter by V. Veryazov) *
           *************************************************

configuration info
------------------
Host name: DESKTOP-ET1S6F4 (Linux)
C Compiler ID: GNU
C flags: -std=gnu99 -fopenmp
Fortran Compiler ID: GNU
Fortran flags: -fno-aggressive-loop-optimizations -cpp -fdefault-integer-8 -fopenmp
Definitions: _WARNING_WORKAROUND_;_MOLCAS_;_I8_;_LINUX_
Parallel: OFF (GA=OFF)


   ----------------------------------------------------------------------
  |
  |           Project: reactant
  |    Submitted from: /home/kenya/molcas_test/0625_re
  |      Scratch area: /tmp/reactant
  |   Save outputs to: /home/kenya/molcas_test/0625_re
  |            Molcas: /home/kenya/OpenMolcas/builds/gnu_dev_omp
  |
  | Scratch area is NOT empty
  |
  |    MOLCAS_DRIVER = /home/kenya/OpenMolcas/builds/gnu_dev_omp/pymolcas
  |    MOLCAS_NPROCS = 1
  |    MOLCAS_SOURCE = /home/kenya/OpenMolcas
  | MOLCAS_STRUCTURE = 0
  |
   ----------------------------------------------------------------------

++ ---------   Input file   ---------

&GATEWAY
Coord = reactant.Opt.xyz
  Basis = 6-31G*
  Group = Full
  NoCD

&SEWARD

&SCF

&RASSCF
  Inactive = 7 7 0 0
  RAS2   = 3 3 3 3
  nActEl = 12 0 0
  alter = 1
  2 10 11
  LUMORB

-- ----------------------------------

*** symbolic link created: INPORB -> reactant.RasOrb
--- Start Module: gateway at Sat Jun 29 02:19:07 2024 ---

()()()()()()()()()()()()()()()()()()()()()()()()()()()()()()()()()()()()()()()()()()()()()()()()()()

                                              &GATEWAY

                                   only a single process is used
                       available to each process: 2.0 GB of memory, 1 thread
                                             pid: 31207
()()()()()()()()()()()()()()()()()()()()()()()()()()()()()()()()()()()()()()()()()()()()()()()()()()

      Found SYMMETRY generators: xz z

++    Symmetry information:
      ---------------------

                    --- Group Generators ---
                    Rotation around the y-axis  
                    Reflection in the xy-plane  

                    Character Table for C2v

                             E   C2(y) s(xy) s(yz)
                    a1       1     1     1     1  y
                    b1       1    -1     1    -1  x, xy, Rz
                    a2       1     1    -1    -1  xz, Ry, I
                    b2       1    -1    -1     1  z, yz, Rx
--


++    Basis set information:
      ----------------------


      Basis set label: C.6-31G**....

      Electronic valence basis set:
      ------------------
      Associated Effective Charge   6.000000 au
      Associated Actual Charge      6.000000 au
      Nuclear Model: Point charge

      Shell  nPrim  nBasis  Cartesian Spherical Contaminant
         s      10       3        X                  
         p       4       2        X                  
         d       1       1        X                  


      Basis set label: H.6-31G....

      Electronic valence basis set:
      ------------------
      Associated Effective Charge   1.000000 au
      Associated Actual Charge      1.000000 au
      Nuclear Model: Point charge

      Shell  nPrim  nBasis  Cartesian Spherical Contaminant
         s       4       2        X                  


      Basis set label: C.6-31G**....

      Electronic valence basis set:
      ------------------
      Associated Effective Charge   6.000000 au
      Associated Actual Charge      6.000000 au
      Nuclear Model: Point charge

      Shell  nPrim  nBasis  Cartesian Spherical Contaminant
         s      10       3        X                  
         p       4       2        X                  
         d       1       1        X                  


      Basis set label: H.6-31G....

      Electronic valence basis set:
      ------------------
      Associated Effective Charge   1.000000 au
      Associated Actual Charge      1.000000 au
      Nuclear Model: Point charge

      Shell  nPrim  nBasis  Cartesian Spherical Contaminant
         s       4       2        X                  
--


++    Molecular structure info:
      -------------------------

                    ************************************************ 
                    **** Cartesian Coordinates / Bohr, Angstrom **** 
                    ************************************************ 

     Center  Label                x              y              z                     x              y              z
        1      C1              -4.173341       1.986180       0.000000             -2.208437       1.051041       0.000000
        2      C1               4.173341       1.986180       0.000000              2.208437       1.051041       0.000000
        3      C2              -2.816805       0.197165       0.000000             -1.490589       0.104335       0.000000
        4      C2               2.816805       0.197165       0.000000              1.490589       0.104335       0.000000
        5      H3               5.358371       3.593815       0.000000              2.835528       1.901765       0.000000
        6      H3              -5.358371       3.593815       0.000000             -2.835528       1.901765       0.000000
        7      C4              -1.255217      -2.017586       0.000000             -0.664232      -1.067660       0.000000
        8      C4               1.255217      -2.017586       0.000000              0.664232      -1.067660       0.000000
        9      H5              -2.232141      -3.799025       0.000000             -1.181198      -2.010357       0.000000
       10      H5               2.232141      -3.799025       0.000000              1.181198      -2.010357       0.000000

                    *************************************** 
                    *    InterNuclear Distances / Bohr    * 
                    *************************************** 

               1 C1            2 C1            3 C2            4 C2            5 H3            6 H3    
    1 C1       0.000000
    2 C1       8.346682        0.000000
    3 C2       2.245165        7.215450        0.000000
    4 C2       7.215450        2.245165        5.633610        0.000000
    5 H3       9.666335        1.997194        8.852725        4.242262        0.000000
    6 H3       1.997194        9.666335        4.242262        8.852725       10.716743        0.000000
    7 C4       4.954351        6.745323        2.709922        4.635351        8.673371        6.951524
    8 C4       6.745323        4.954351        4.635351        2.709922        6.951524        8.673371
    9 H5       6.102201        8.631269        4.038733        6.439052       10.595752        8.026667
   10 H5       8.631269        6.102201        6.439052        4.038733        8.026667       10.595752

               7 C4            8 C4            9 H5           10 H5    
    7 C4       0.000000
    8 C4       2.510434        0.000000
    9 H5       2.031725        3.916017        0.000000
   10 H5       3.916017        2.031725        4.464283        0.000000

                    ******************************************* 
                    *    InterNuclear Distances / Angstrom    * 
                    ******************************************* 

               1 C1            2 C1            3 C2            4 C2            5 H3            6 H3    
    1 C1       0.000000
    2 C1       4.416874        0.000000
    3 C2       1.188090        3.818252        0.000000
    4 C2       3.818252        1.188090        2.981178        0.000000
    5 H3       5.115204        1.056870        4.684660        2.244909        0.000000
    6 H3       1.056870        5.115204        2.244909        4.684660        5.671056        0.000000
    7 C4       2.621730        3.569471        1.434029        2.452922        4.589750        3.678588
    8 C4       3.569471        2.621730        2.452922        1.434029        3.678588        4.589750
    9 H5       3.229146        4.567471        2.137205        3.407400        5.607030        4.247529
   10 H5       4.567471        3.229146        3.407400        2.137205        4.247529        5.607030

               7 C4            8 C4            9 H5           10 H5    
    7 C4       0.000000
    8 C4       1.328464        0.000000
    9 H5       1.075143        2.072267        0.000000
   10 H5       2.072267        1.075143        2.362397        0.000000

                    ************************************** 
                    *    Valence Bond Angles / Degree    * 
                    ************************************** 
                          Atom centers                 Phi
                      3 C2       1 C1       6 H3       179.22
                      4 C2       2 C1       5 H3       179.22
                      1 C1       3 C2       7 C4       178.02
                      2 C1       4 C2       8 C4       178.02
                      3 C2       7 C4       8 C4       125.19
                      3 C2       7 C4       9 H5       116.07
                      8 C4       7 C4       9 H5       118.74
                      4 C2       8 C4       7 C4       125.19
                      4 C2       8 C4      10 H5       116.07
                      7 C4       8 C4      10 H5       118.74

           ***************************************************************
           *              Valence Dihedral Angles / Degree               *
           ***************************************************************
                    Atom centers                       Phi1     Phi2     Theta 
           6 H3       1 C1       3 C2       7 C4        179.22   178.02  -180.00
           5 H3       2 C1       4 C2       8 C4        179.22   178.02  -180.00
           1 C1       3 C2       7 C4       8 C4        178.02   125.19  -180.00
           1 C1       3 C2       7 C4       9 H5        178.02   116.07    -0.00
           2 C1       4 C2       8 C4       7 C4        178.02   125.19  -180.00
           2 C1       4 C2       8 C4      10 H5        178.02   116.07    -0.00
           3 C2       7 C4       8 C4       4 C2        125.19   125.19    -0.00
           3 C2       7 C4       8 C4      10 H5        125.19   118.74  -180.00
           9 H5       7 C4       8 C4      10 H5        118.74   118.74    -0.00
           4 C2       8 C4       7 C4       9 H5        125.19   118.74  -180.00
--


            Nuclear Potential Energy            166.86090531 au

--- Stop Module: gateway at Sat Jun 29 02:19:07 2024 /rc=_RC_ALL_IS_WELL_ ---
*** files: xmldump
    saved to directory /home/kenya/molcas_test/0625_re

*** symbolic link created: INPORB -> reactant.RasOrb
--- Start Module: seward at Sat Jun 29 02:19:07 2024 ---

()()()()()()()()()()()()()()()()()()()()()()()()()()()()()()()()()()()()()()()()()()()()()()()()()()

                                              &SEWARD

                                   only a single process is used
                       available to each process: 2.0 GB of memory, 1 thread
                                             pid: 31210
()()()()()()()()()()()()()()()()()()()()()()()()()()()()()()()()()()()()()()()()()()()()()()()()()()

               SEWARD will generate:
                  Multipole Moment integrals up to order  2
                  Kinetic Energy integrals
                  Nuclear Attraction integrals (point charge)
                  One-Electron Hamiltonian integrals
                  Velocity integrals
                  Orbital angular momentum around ( 0.0000  0.0469  0.0000 )
                  Velocity quadrupole around ( 0.0000  0.0469  0.0000 )
                  Two-Electron Repulsion integrals

                   Integrals are discarded if absolute value <: 1.00E-14
                   Integral cutoff threshold is set to       <: 1.00E-16

                    Unitary symmetry adaptation


            Nuclear Potential Energy            166.86090531 au


      Basis set specifications :
      Symmetry species         a1   b1   a2   b2 
      Basis functions           37   37   12   12


      Input file to MOLDEN was generated!

--- Stop Module: seward at Sat Jun 29 02:19:09 2024 /rc=_RC_ALL_IS_WELL_ ---
*** files: reactant.GssOrb reactant.guessorb.molden xmldump
    saved to directory /home/kenya/molcas_test/0625_re
--- Module seward spent 1 second ---

*** symbolic link created: INPORB -> reactant.ScfOrb
--- Start Module: scf at Sat Jun 29 02:19:09 2024 ---

()()()()()()()()()()()()()()()()()()()()()()()()()()()()()()()()()()()()()()()()()()()()()()()()()()

                                                &SCF

                                   only a single process is used
                       available to each process: 2.0 GB of memory, 1 thread
                                             pid: 31247
()()()()()()()()()()()()()()()()()()()()()()()()()()()()()()()()()()()()()()()()()()()()()()()()()()

++    Input section:
      --------------

      Header of the integral files:
      
       Integrals generated by Gateway/Seward, Sat Jun 29 02:19:07 2024


      Cartesian coordinates in Angstrom:
      -----------------------------------------------------
      No.  Label        X            Y            Z        
      -----------------------------------------------------
       1   C1        -2.20843704   1.05104138   0.00000000
       2   C2        -1.49058899   0.10433511   0.00000000
       3   H3         2.83552802   1.90176482   0.00000000
       4   C4        -0.66423210  -1.06766039   0.00000000
       5   H5        -1.18119839  -2.01035733   0.00000000
       6   C1         2.20843704   1.05104138   0.00000000
       7   C2         1.49058899   0.10433511   0.00000000
       8   H3        -2.83552802   1.90176482   0.00000000
       9   C4         0.66423210  -1.06766039   0.00000000
      10   H5         1.18119839  -2.01035733   0.00000000
      -----------------------------------------------------
      Nuclear repulsion energy =  166.86090531
--

++    Orbital specifications:
      -----------------------

      Symmetry species               1   2   3   4
                                    a1  b1  a2  b2
      Frozen orbitals                0   0   0   0
      Occupied orbitals              9   8   1   2
      Secondary orbitals            28  29  11  10
      Deleted orbitals               0   0   0   0
      Total number of orbitals      37  37  12  12
      Number of basis functions     37  37  12  12
--

      Molecular charge                           0.000

++    Optimization specifications:
      ----------------------------

      SCF Algorithm: Conventional
      Minimized density differences are used
      Number of density matrices in core                 5
      Maximum number of NDDO SCF iterations            400
      Maximum number of HF SCF iterations              400
      Threshold for SCF energy change             1.00E-09
      Threshold for density matrix                1.00E-04
      Threshold for Fock matrix                   1.50E-04
      Threshold for linear dependence             1.00E-09
      Threshold at which DIIS is turned on        1.50E-01
      Maximum depth in the DIIS procedure                5
      Maximum depth in the BFGS Hessian update          30
      Threshold at which QNR/C2DIIS is turned on  7.50E-02
      Threshold for Norm(delta) (QNR/C2DIIS)      1.00E-03
      All orbitals punched on: SCFORB
--

      Input vectors read from INPORB
      Orbital file label: * SCF orbitals


++ Convergence information
                                   SCF        iterations: Energy and convergence statistics

Iter     Tot. SCF        One-elec.       Two-elec.     Energy      Max Dij or  Max Fij      DNorm      TNorm      AccCon     Time
         Energy          Energy          Energy        Change      Delta Norm                                                in Sec.
   1  -229.382625451  -638.730273448   242.486742686   0.00E+00    1.08E-13    1.53E-13     7.18E+00   2.35E+02   None         0.
   2  -229.382625451  -638.730273448   242.486742686  -1.02E-12    2.80E-14    4.63E-14     2.53E-11   2.35E+02   EDIIS        0.

       Convergence after   2 Macro Iterations
--

 *****************************************************************************************************************************
 *                                                                                                                           *
 *                                             SCF/KS-DFT Program, Final results                                             *
 *                                                                                                                           *
 *                                                                                                                           *
 *                                                                                                                           *
 *                                                       Final Results                                                       *
 *                                                                                                                           *
 *****************************************************************************************************************************

::    Total SCF energy                               -229.3826254513
      One-electron energy                            -638.7302734475
      Two-electron energy                             242.4867426860
      Nuclear repulsion energy                        166.8609053102
      Kinetic energy (interpolated)                   229.1406598470
      Virial theorem                                    1.0010559697
      Total spin, S(S+1)                                0.0000000000
      Total spin, S                                     0.0000000000
      Max non-diagonal density matrix element           0.0000000000
      Max non-diagonal Fock matrix element              0.0000000000


      All orbitals with orbital energies smaller than  E(LUMO)+0.5 are printed

++    Molecular orbitals:
      -------------------

      Title: SCF orbitals

      Molecular orbitals for symmetry species 1: a1 

          Orbital            1         2         3         4         5         6         7         8         9        10    
          Energy          -11.2708  -11.2364  -11.2298   -1.1161   -0.9987   -0.7503   -0.6829   -0.6484   -0.4000    0.1933
          Occ. No.          2.0000    2.0000    2.0000    2.0000    2.0000    2.0000    2.0000    2.0000    2.0000    0.0000

        1 C1     1s         0.0003    0.3232   -0.9415   -0.0615    0.1675   -0.0958   -0.0129   -0.0101    0.0038    0.0060
        2 C1     2s         0.0003    0.0077   -0.0261    0.1083   -0.3075    0.1948    0.0416    0.0097   -0.0095   -0.0316
        3 C1     *s        -0.0045    0.0008    0.0146    0.1512   -0.2593    0.1325   -0.1076    0.1078    0.0212    0.1935
        4 C1     2px        0.0001   -0.0004   -0.0002    0.0403   -0.0848   -0.1298   -0.1797    0.1458    0.3064   -0.2483
        5 C1     *px       -0.0020    0.0008    0.0027    0.0279    0.0011   -0.0807   -0.1104    0.0912    0.2260   -0.4111
        6 C1     2py       -0.0001    0.0004    0.0002   -0.0505    0.1136    0.1676    0.2837   -0.1008    0.2413   -0.1619
        7 C1     *py        0.0026   -0.0014   -0.0037   -0.0361   -0.0039    0.0995    0.1699   -0.0715    0.1477   -0.4559
        8 C1     *200       0.0001   -0.0005    0.0012    0.0003   -0.0012    0.0035    0.0053    0.0018    0.0120    0.0118
        9 C1     *110      -0.0001   -0.0005    0.0010   -0.0055    0.0231   -0.0229   -0.0108    0.0006   -0.0070   -0.0068
       10 C1     *020       0.0000   -0.0003    0.0009    0.0015   -0.0080    0.0111    0.0052   -0.0062   -0.0119   -0.0127
       11 C1     *002       0.0000   -0.0007    0.0015   -0.0020    0.0076   -0.0047    0.0001   -0.0009   -0.0003   -0.0018
       12 C2     1s         0.0118    0.9410    0.3246   -0.1202    0.1255    0.0981    0.0156    0.0153   -0.0027   -0.0028
       13 C2     2s         0.0002    0.0252    0.0100    0.2294   -0.2232   -0.2033   -0.0219   -0.0361    0.0022   -0.0343
       14 C2     *s         0.0073   -0.0077   -0.0120    0.0845   -0.1831   -0.0968    0.1057   -0.1184    0.0086    0.1046
       15 C2     2px       -0.0000    0.0000   -0.0003    0.0336    0.1380   -0.0944    0.2155   -0.0358    0.3079    0.2209
       16 C2     *px       -0.0013   -0.0000    0.0031    0.0502   -0.0082   -0.0502   -0.0513    0.0638    0.2325    0.5544
       17 C2     2py        0.0001   -0.0003    0.0003   -0.0350   -0.1765    0.1138   -0.1943    0.2431    0.2164    0.1569
       18 C2     *py        0.0017    0.0007   -0.0038   -0.0643    0.0197    0.0703    0.0962   -0.0198    0.1271    0.0591
       19 C2     *200      -0.0002   -0.0011   -0.0004    0.0027    0.0020   -0.0018    0.0026    0.0040   -0.0143    0.0161
       20 C2     *110       0.0003   -0.0015   -0.0001   -0.0200    0.0060    0.0175   -0.0003   -0.0021    0.0098   -0.0021
       21 C2     *020      -0.0005   -0.0006   -0.0003    0.0076   -0.0003   -0.0071   -0.0006   -0.0048    0.0133   -0.0176
       22 C2     *002      -0.0001   -0.0017   -0.0004   -0.0054    0.0043    0.0046    0.0016    0.0002   -0.0003   -0.0027
       23 H3     1s        -0.0002   -0.0004    0.0009    0.0205   -0.0732    0.2077    0.2015   -0.0865    0.0032   -0.0001
       24 H3     *s        -0.0010    0.0009   -0.0007    0.0098   -0.0006    0.0909    0.1015   -0.0446    0.0095    0.0516
       25 C4     1s         0.9952   -0.0117   -0.0037   -0.1923   -0.1040   -0.0301   -0.0025   -0.0142    0.0173    0.0635
       26 C4     2s         0.0273   -0.0003   -0.0002    0.3727    0.1974    0.0582    0.0023    0.0350   -0.0394   -0.1029
       27 C4     *s        -0.0072    0.0026   -0.0000    0.2157    0.1999    0.0688    0.0797   -0.0798   -0.0569   -1.0348
       28 C4     2px       -0.0005    0.0005    0.0001    0.0930    0.1168    0.1853    0.0392    0.5256   -0.1441    0.0131
       29 C4     *px        0.0011   -0.0007   -0.0002    0.0125    0.0034    0.0416    0.0018    0.1989   -0.0609    0.3624
       30 C4     2py        0.0005   -0.0007   -0.0001    0.0421   -0.0504   -0.2737    0.3299    0.0862   -0.0701    0.0866
       31 C4     *py       -0.0002    0.0008    0.0001   -0.0155    0.0023   -0.0920    0.1672    0.0208   -0.0522    0.2308
       32 C4     *200      -0.0010   -0.0003   -0.0000    0.0108    0.0062    0.0049    0.0002    0.0071   -0.0095   -0.0148
       33 C4     *110      -0.0001    0.0005    0.0001   -0.0000    0.0068    0.0115   -0.0106    0.0025    0.0087    0.0248
       34 C4     *020      -0.0012   -0.0005   -0.0001    0.0033   -0.0018   -0.0027   -0.0027   -0.0167    0.0130    0.0189
       35 C4     *002      -0.0015   -0.0001   -0.0000   -0.0090   -0.0050   -0.0005   -0.0005    0.0012   -0.0004   -0.0003
       36 H5     1s        -0.0001   -0.0001   -0.0001    0.0915    0.0653    0.1043   -0.1717   -0.1779    0.0953    0.1040
       37 H5     *s         0.0019    0.0002    0.0001    0.0053    0.0164    0.0510   -0.0949   -0.1253    0.1068    1.1102

          Orbital           11        12        13        14    
          Energy            0.2705    0.2981    0.4179    0.5894
          Occ. No.          0.0000    0.0000    0.0000    0.0000

        1 C1     1s        -0.0950    0.0020   -0.0384    0.0580
        2 C1     2s         0.1846    0.0041    0.2072   -0.2823
        3 C1     *s        -1.0146   -0.1690   -1.1939   -5.2597
        4 C1     2px       -0.1207    0.1444    0.1464   -0.1123
        5 C1     *px       -1.8199    0.4590   -0.1616   -2.0398
        6 C1     2py        0.1663    0.0882   -0.1943    0.1235
        7 C1     *py        2.4204    0.3426   -0.0784    2.5593
        8 C1     *200      -0.0032   -0.0107    0.0101   -0.0105
        9 C1     *110       0.0247    0.0067    0.0003   -0.0060
       10 C1     *020      -0.0103    0.0105   -0.0032   -0.0080
       11 C1     *002       0.0062    0.0000    0.0058   -0.0142
       12 C2     1s         0.0473    0.0081    0.1201   -0.0479
       13 C2     2s        -0.1599   -0.0117   -0.0254   -0.5891
       14 C2     *s         2.2179   -0.0592   -2.2052    3.6628
       15 C2     2px        0.0513   -0.1700   -0.0895   -0.1025
       16 C2     *px       -1.4244   -0.6905   -1.0289   -2.9862
       17 C2     2py       -0.0547   -0.0955    0.3153    0.0682
       18 C2     *py        1.9025   -0.3440    1.6963    4.3933
       19 C2     *200       0.0011   -0.0021    0.0078   -0.0360
       20 C2     *110      -0.0192    0.0005   -0.0278    0.0714
       21 C2     *020       0.0069    0.0041    0.0134   -0.0626
       22 C2     *002      -0.0062   -0.0014   -0.0032   -0.0215
       23 H3     1s        -0.0734    0.0025   -0.0448    0.0084
       24 H3     *s        -2.9748    0.0867    0.4717   -0.9890
       25 C4     1s        -0.0187    0.0515   -0.0930   -0.0159
       26 C4     2s         0.0016   -0.0070    0.1027   -0.3550
       27 C4     *s         1.1385   -1.2566    2.5724    3.6030
       28 C4     2px       -0.0533    0.2130   -0.1745    0.3553
       29 C4     *px       -0.3302    0.5628   -1.2225   -1.7090
       30 C4     2py        0.0750    0.2733    0.2508   -0.3647
       31 C4     *py        0.5449    0.8872    1.3120    1.6549
       32 C4     *200       0.0001    0.0120    0.0046    0.0067
       33 C4     *110       0.0058    0.0049    0.0585    0.0056
       34 C4     *020       0.0002   -0.0095   -0.0045   -0.0255
       35 C4     *002      -0.0018    0.0045    0.0026   -0.0137
       36 H5     1s         0.0033   -0.0419    0.1197    0.0290
       37 H5     *s         0.1471    1.9058    0.0394    0.0015

      Molecular orbitals for symmetry species 2: b1 

          Orbital            1         2         3         4         5         6         7         8         9        10    
          Energy          -11.2691  -11.2364  -11.2298   -1.0376   -0.8662   -0.7089   -0.5722   -0.3932    0.2385    0.2706
          Occ. No.          2.0000    2.0000    2.0000    2.0000    2.0000    2.0000    2.0000    2.0000    0.0000    0.0000

        1 C1     1s         0.0005    0.3226   -0.9417   -0.1579    0.1102   -0.0604    0.0280   -0.0025   -0.0091   -0.0906
        2 C1     2s         0.0004    0.0076   -0.0261    0.2863   -0.2088    0.1385   -0.0461    0.0077    0.0246    0.1840
        3 C1     *s         0.0006    0.0002    0.0131    0.3461   -0.1955   -0.1251   -0.2070    0.0589    0.2605   -1.7015
        4 C1     2px        0.0002   -0.0004   -0.0002    0.0879   -0.0214   -0.2496   -0.0604    0.3337   -0.2512   -0.1175
        5 C1     *px       -0.0004    0.0010    0.0024    0.0368    0.0079   -0.1837   -0.0606    0.2433   -0.6287   -2.0255
        6 C1     2py       -0.0003    0.0005    0.0003   -0.1198    0.0140    0.3245    0.1380    0.2367   -0.1920    0.1863
        7 C1     *py        0.0004   -0.0011   -0.0031   -0.0528   -0.0197    0.2385    0.1177    0.1418   -0.4729    2.7877
        8 C1     *200       0.0000   -0.0005    0.0012    0.0007   -0.0025    0.0048    0.0032    0.0128    0.0181   -0.0044
        9 C1     *110      -0.0001   -0.0005    0.0010   -0.0195    0.0204   -0.0203    0.0005   -0.0072   -0.0083    0.0270
       10 C1     *020       0.0001   -0.0004    0.0009    0.0070   -0.0067    0.0121   -0.0012   -0.0127   -0.0191   -0.0099
       11 C1     *002      -0.0000   -0.0007    0.0015   -0.0064    0.0059   -0.0023    0.0020    0.0004    0.0018    0.0066
       12 C2     1s         0.0127    0.9412    0.3241   -0.1801   -0.0358    0.0753   -0.0565    0.0017   -0.0007    0.0406
       13 C2     2s         0.0005    0.0255    0.0101    0.3307    0.0876   -0.1443    0.1261    0.0025    0.0290   -0.1382
       14 C2     *s         0.0069   -0.0094   -0.0125    0.2005    0.0400    0.0409    0.1755   -0.0218    0.1094    2.4350
       15 C2     2px       -0.0000    0.0003   -0.0002   -0.0726    0.1603    0.0863    0.2330    0.3105    0.3250    0.0466
       16 C2     *px        0.0029   -0.0015    0.0016    0.0952    0.0138   -0.1610   -0.0564    0.2427    0.7343   -1.9448
       17 C2     2py        0.0001   -0.0003    0.0003    0.0809   -0.2571   -0.1378   -0.2062    0.2587    0.2254   -0.0950
       18 C2     *py       -0.0029    0.0016   -0.0022   -0.1258   -0.0149    0.2093    0.0951    0.1000    0.2243    2.4786
       19 C2     *200      -0.0003   -0.0009   -0.0003   -0.0005    0.0020   -0.0006    0.0019   -0.0134    0.0156    0.0007
       20 C2     *110       0.0004   -0.0016   -0.0001   -0.0193   -0.0147    0.0119   -0.0084    0.0050   -0.0203   -0.0160
       21 C2     *020      -0.0005   -0.0005   -0.0003    0.0061    0.0096   -0.0023    0.0015    0.0143   -0.0117    0.0074
       22 C2     *002      -0.0001   -0.0015   -0.0003   -0.0075   -0.0022    0.0044   -0.0008    0.0008    0.0023   -0.0048
       23 H3     1s         0.0001    0.0004   -0.0009   -0.0621    0.0876   -0.2859   -0.0583    0.0008    0.0074    0.0727
       24 H3     *s         0.0003   -0.0009    0.0008   -0.0139    0.0225   -0.1224   -0.0281   -0.0046    0.1138    3.1094
       25 C4     1s         0.9959   -0.0126   -0.0039   -0.0577   -0.1463   -0.0451    0.0224   -0.0204   -0.0348   -0.0266
       26 C4     2s         0.0283    0.0000   -0.0002    0.1183    0.2907    0.0832   -0.0498    0.0426    0.0771   -0.0034
       27 C4     *s        -0.0212    0.0028    0.0011   -0.0236    0.2818    0.2557    0.0767    0.0760    0.5108    1.7294
       28 C4     2px       -0.0001    0.0003    0.0001   -0.0833   -0.2047   -0.0620    0.0305    0.0099    0.0961   -0.0345
       29 C4     *px       -0.0021   -0.0023   -0.0011    0.0191   -0.0919   -0.0828    0.0065    0.0525    0.6106   -0.4925
       30 C4     2py        0.0006   -0.0005   -0.0000    0.0490    0.0323   -0.0617    0.4179   -0.0415    0.0379    0.0360
       31 C4     *py       -0.0050    0.0011    0.0013   -0.0646   -0.0000    0.0639    0.3377   -0.0842   -0.2117    0.9846
       32 C4     *200      -0.0006   -0.0006   -0.0001    0.0009   -0.0008    0.0009   -0.0004   -0.0093   -0.0211    0.0055
       33 C4     *110      -0.0003    0.0007    0.0001   -0.0070   -0.0010    0.0064   -0.0466    0.0116    0.0091   -0.0043
       34 C4     *020      -0.0008   -0.0006   -0.0001    0.0062    0.0125    0.0057   -0.0045    0.0086    0.0187    0.0023
       35 C4     *002      -0.0013   -0.0001   -0.0000   -0.0028   -0.0074   -0.0024    0.0006   -0.0004    0.0019   -0.0032
       36 H5     1s        -0.0002   -0.0002   -0.0000    0.0383    0.1484    0.0897   -0.2808    0.0646    0.0705   -0.0163
       37 H5     *s         0.0009   -0.0004    0.0001   -0.0015    0.0451    0.0572   -0.1774    0.0513    0.1610   -0.0114

          Orbital           11        12    
          Energy            0.3143    0.5676
          Occ. No.          0.0000    0.0000

        1 C1     1s         0.0167   -0.0700
        2 C1     2s        -0.0397    0.2625
        3 C1     *s        -2.1297    1.8105
        4 C1     2px       -0.0452    0.0774
        5 C1     *px       -0.7860    1.3376
        6 C1     2py        0.0788   -0.2638
        7 C1     *py        1.2021   -1.0255
        8 C1     *200       0.0006   -0.0091
        9 C1     *110       0.0013    0.0196
       10 C1     *020      -0.0038    0.0160
       11 C1     *002      -0.0012    0.0105
       12 C2     1s        -0.0355    0.1140
       13 C2     2s         0.0186    0.1417
       14 C2     *s         0.7623   -3.6434
       15 C2     2px        0.1076   -0.2483
       16 C2     *px       -1.7240    0.0974
       17 C2     2py       -0.0643   -0.0275
       18 C2     *py        1.8267   -1.1144
       19 C2     *200      -0.0046    0.0192
       20 C2     *110       0.0213   -0.0601
       21 C2     *020      -0.0086    0.0214
       22 C2     *002      -0.0011   -0.0045
       23 H3     1s        -0.0038    0.0988
       24 H3     *s         0.5878   -0.8105
       25 C4     1s         0.1106   -0.1195
       26 C4     2s        -0.2391    0.2469
       27 C4     *s        -0.5058    2.5795
       28 C4     2px        0.1187   -0.0434
       29 C4     *px       -0.1561    2.3046
       30 C4     2py        0.1548    0.4089
       31 C4     *py        2.8629    1.5655
       32 C4     *200       0.0071    0.0129
       33 C4     *110      -0.0183   -0.0178
       34 C4     *020       0.0049   -0.0007
       35 C4     *002      -0.0050    0.0110
       36 H5     1s         0.0080   -0.0698
       37 H5     *s         2.8309    1.4734

      Molecular orbitals for symmetry species 3: a2 

          Orbital            1         2         3    
          Energy           -0.4159    0.0956    0.3589
          Occ. No.          2.0000    0.0000    0.0000

        1 C1     2pz        0.3763   -0.2972    0.1744
        2 C1     *pz        0.2501   -0.4630    0.8191
        3 C1     *101       0.0158    0.0074   -0.0291
        4 C1     *011      -0.0214   -0.0102    0.0378
        5 C2     2pz        0.4116    0.1484   -0.4128
        6 C2     *pz        0.2569    0.2322   -0.9957
        7 C2     *101      -0.0134    0.0234   -0.0002
        8 C2     *011       0.0146   -0.0394   -0.0064
        9 C4     2pz        0.1040    0.4139    0.3559
       10 C4     *pz        0.0741    0.6542    1.0665
       11 C4     *101      -0.0134   -0.0335   -0.0142
       12 C4     *011       0.0119    0.0079   -0.0269

      Molecular orbitals for symmetry species 4: b2 

          Orbital            1         2         3    
          Energy           -0.4892   -0.3267    0.2583
          Occ. No.          2.0000    2.0000    0.0000

        1 C1     2pz        0.2183   -0.3545   -0.3055
        2 C1     *pz        0.1299   -0.2710   -0.8642
        3 C1     *101       0.0116   -0.0103    0.0234
        4 C1     *011      -0.0154    0.0133   -0.0304
        5 C2     2pz        0.3083   -0.2513    0.3814
        6 C2     *pz        0.1698   -0.1984    0.9221
        7 C2     *101       0.0006    0.0237    0.0153
        8 C2     *011      -0.0002   -0.0291   -0.0184
        9 C4     2pz        0.3888    0.3750   -0.1530
       10 C4     *pz        0.2568    0.3292   -0.3042
       11 C4     *101       0.0174    0.0308   -0.0314
       12 C4     *011       0.0111   -0.0068    0.0357
--


++    Molecular charges:
      ------------------

      Mulliken charges per centre and basis function type
      ---------------------------------------------------

                C1      C2      H3      C4      H5    
      1s       1.9965  1.9966  0.5011  1.9966  0.5247
      2s       0.6686  0.6748  0.0000  0.6683  0.0000
      2px      0.6551  0.6548  0.0000  0.7576  0.0000
      2pz      0.5594  0.5817  0.0000  0.5357  0.0000
      2py      0.7208  0.7219  0.0000  0.7087  0.0000
      *s       0.5446  0.3893  0.2013  0.4641  0.2436
      *px      0.4587  0.2799  0.0000  0.2018  0.0000
      *110     0.0115  0.0101  0.0000  0.0191  0.0000
      *020     0.0367  0.0285  0.0000  0.0249  0.0000
      *002    -0.0192 -0.0180  0.0000 -0.0193  0.0000
      *200     0.0117  0.0077  0.0000  0.0242  0.0000
      *pz      0.4269  0.4026  0.0000  0.4583  0.0000
      *py      0.4257  0.1043  0.0000  0.3226  0.0000
      *101     0.0036  0.0055  0.0000  0.0093  0.0000
      *011     0.0063  0.0085  0.0000  0.0023  0.0000
      Total    6.5070  5.8480  0.7024  6.1743  0.7683

      N-E     -0.5070  0.1520  0.2976 -0.1743  0.2317

      Total electronic charge=   40.000000

      Total            charge=    0.000000
--


++    Molecular properties:
      ---------------------

      Charge (e):
                      =    0.0000
      Dipole Moment (Debye):
      Origin of the operator (Ang)=    0.0000    0.0000    0.0000
                   X=  0.0000E+00               Y= -1.8429E-01               Z=  0.0000E+00           Total=  1.8429E-01
      Quadrupole Moment (Debye*Ang):
      Origin of the operator (Ang)=    0.0000    0.0248    0.0000
                  XX= -3.0119E+01              XY=  0.0000E+00              XZ=  0.0000E+00              YY= -2.6425E+01
                  YZ=  0.0000E+00              ZZ= -3.7591E+01
      In traceless form (Debye*Ang)
                  XX=  1.8887E+00              XY=  0.0000E+00              XZ=  0.0000E+00              YY=  7.4301E+00
                  YZ=  0.0000E+00              ZZ= -9.3188E+00
--


      Input file to MOLDEN was generated!

 ###############################################################################
 ###############################################################################
 ###                                                                         ###
 ###                                                                         ###
 ###    WARNING: RunFile label nBas                                          ###
 ###    was used       60 times                                              ###
 ###                                                                         ###
 ###                                                                         ###
 ###############################################################################
 ###############################################################################
--- Stop Module: scf at Sat Jun 29 02:19:09 2024 /rc=_RC_ALL_IS_WELL_ ---
*** files: reactant.scf.molden reactant.ScfOrb xmldump
    saved to directory /home/kenya/molcas_test/0625_re

*** symbolic link created: INPORB -> reactant.RasOrb
--- Start Module: rasscf at Sat Jun 29 02:19:09 2024 ---

()()()()()()()()()()()()()()()()()()()()()()()()()()()()()()()()()()()()()()()()()()()()()()()()()()

                                              &RASSCF

                                   only a single process is used
                       available to each process: 2.0 GB of memory, 1 thread
                                             pid: 31252
()()()()()()()()()()()()()()()()()()()()()()()()()()()()()()()()()()()()()()()()()()()()()()()()()()


      Header of the ONEINT file:
      --------------------------
      
      Integrals generated by Gateway/Seward, Sat Jun 29 02:19:07 2024


      OrdInt status: non-squared


      Cartesian coordinates in Angstrom:
      -----------------------------------------------------
      No.  Label        X            Y            Z        
      -----------------------------------------------------
       1   C1        -2.20843704   1.05104138   0.00000000
       2   C2        -1.49058899   0.10433511   0.00000000
       3   H3         2.83552802   1.90176482   0.00000000
       4   C4        -0.66423210  -1.06766039   0.00000000
       5   H5        -1.18119839  -2.01035733   0.00000000
       6   C1         2.20843704   1.05104138   0.00000000
       7   C2         1.49058899   0.10433511   0.00000000
       8   H3        -2.83552802   1.90176482   0.00000000
       9   C4         0.66423210  -1.06766039   0.00000000
      10   H5         1.18119839  -2.01035733   0.00000000
      -----------------------------------------------------
      Nuclear repulsion energy =  166.86090531

++    Wave function specifications:
      -----------------------------

      Number of closed shell electrons          28
      Number of electrons in active shells      12
      Max number of holes in RAS1 space          0
      Max nr of electrons in RAS3 space          0
      Number of inactive orbitals               14
      Number of active orbitals                 12
      Number of secondary orbitals              72
      Spin quantum number                      0.0
      State symmetry                             1
--

++    Orbital specifications:
      -----------------------

      Symmetry species                           1   2   3   4
                                                a1  b1  a2  b2
      Frozen orbitals                            0   0   0   0
      Inactive orbitals                          7   7   0   0
      Active orbitals                            3   3   3   3
      RAS1 orbitals                              0   0   0   0
      RAS2 orbitals                              3   3   3   3
      RAS3 orbitals                              0   0   0   0
      Secondary orbitals                        27  27   9   9
      Deleted orbitals                           0   0   0   0
      Number of basis functions                 37  37  12  12
--

++    CI expansion specifications:
      ----------------------------

      Number of CSFs                         56928
      Number of determinants                107334
      Number of root(s) required                 1
      Root chosen for geometry opt.              1
      CI root used                               1
         
      highest root included in the CI            1
      max. size of the explicit Hamiltonian    200
--

++    Optimization specifications:
      ----------------------------

      RASSCF algorithm: Conventional
      Maximum number of macro iterations       200
      Maximum number of SX iterations          100
      Threshold for RASSCF energy            1.000E-08
      Threshold for max MO rotation          1.000E-01
      Threshold for max BLB element          1.000E-04
      Level shift parameter                  5.000E-01
      Make Quasi-Newton update
--

      The MO-coefficients are taken from the file:
      INPORB                                                                                                                                                                                                                                                          
      Title: RASSCF average (pseudo-natural) orbitals                                      

      Total molecular charge    0.00

      Molecular orbitals exchanged:
        In symmetry  2 :  10  11


      ************************************************************************************************************************
      *                                                                                                                      *
      *                                            Wave function control section                                             *
      *                                                                                                                      *
      ************************************************************************************************************************


                                         RASSCF iterations: Energy and convergence statistics
                                         ----------------------------------------------------

      Iter CI   SX   CI       RASSCF       Energy    max ROT     max BLB   max BLB  Level Ln srch  Step   QN   Walltime
          iter iter root      energy       change     param      element    value   shift minimum  type update hh:mm:ss
 Nr of preliminary CI iterations:   5
        1   1   14    1  -229.54458335    0.00E+00  -4.68E-01*   8  31 1 -1.48E-02*  0.00   0.00    SX    NO    0:00:04
 ###############################################################################
 ###############################################################################
 ###                                                                         ###
 ###                                                                         ###
 ###    WARNING: Large orbital rotation.                                     ###
 ###                                                                         ###
 ###                                                                         ###
 ###############################################################################
 ###############################################################################
      Molecular orbital  10 of symmetry 2 MO space 2  weight is    0.122870
 ###############################################################################
 ###############################################################################
 ###                                                                         ###
 ###                                                                         ###
 ###    WARNING: Large orbital rotation.                                     ###
 ###                                                                         ###
 ###                                                                         ###
 ###############################################################################
 ###############################################################################
      Molecular orbital  11 of symmetry 2 MO space 3  weight is    0.141525
        2   4    8    1  -229.55023178   -5.65E-03*  9.26E-01*  10  11 2  8.93E-03*  0.00   0.00    SX    NO    0:00:02
        3   5    8    1  -229.56782681   -1.76E-02*  1.34E-01*   8  31 1  1.29E-02*  0.00   0.00    SX    NO    0:00:02
        4   3    7    1  -229.57022586   -2.40E-03* -3.30E-02    5  10 2  2.99E-03*  0.00   0.00    SX    NO    0:00:02
        5   3    7    1  -229.57054062   -3.15E-04* -2.74E-02    5  10 2  1.73E-03*  0.00   1.93    LS   YES    0:00:02
        6   4    7    1  -229.57064179   -1.01E-04*  1.47E-02    8  22 1 -1.39E-03*  0.00   1.16    QN   YES    0:00:02
        7   3    6    1  -229.57066898   -2.72E-05*  6.27E-03    8  22 1 -4.79E-04*  0.00   1.44    LS   YES    0:00:02
        8   3    6    1  -229.57067179   -2.82E-06* -2.44E-03    8  17 1  4.09E-04*  0.00   1.03    QN   YES    0:00:02
        9   5    5    1  -229.57067408   -2.29E-06* -9.22E-04    8  31 1  1.46E-04*  0.00   1.28    QN   YES    0:00:02
       10   3    5    1  -229.57067439   -3.17E-07*  2.75E-04    8  31 1  2.43E-05   0.00   1.12    QN   YES    0:00:02
       11   2    5    1  -229.57067445   -5.80E-08* -5.77E-04    8  17 1 -1.96E-05   0.00   2.07    QN   YES    0:00:01
       12   3    5    1  -229.57067453   -7.68E-08* -4.83E-04    8  31 1 -4.26E-05   0.00   1.54    QN   YES    0:00:01
       13   2    5    1  -229.57067457   -3.96E-08*  2.79E-04    8  31 1 -2.80E-05   0.00   1.57    QN   YES    0:00:01
       14   1    5    1  -229.57067459   -1.77E-08* -1.09E-04    4  10 1 -8.85E-06   0.00   1.38    QN   YES    0:00:01
       15   2    4    1  -229.57067459   -5.99E-09  -6.05E-05    8  31 1  6.15E-06   0.00   1.33    QN   YES    0:00:01
      Convergence after 15 iterations
       16   1    4    1  -229.57067459   -1.63E-09  -6.05E-05    8  31 1  4.38E-06   0.00   1.33    QN   YES    0:00:01

      ************************************************************************************************************************
                                                      Wave function printout:
                       occupation of active orbitals, and spin coupling of open shells (u,d: Spin up or down)
      ************************************************************************************************************************

      Note: transformation to natural orbitals
      has been made, which may change the order of the CSFs.

      printout of CI-coefficients larger than  0.05 for root  1
      energy=    -229.570675
      conf/sym  111222333444     Coeff  Weight
         11436  222 000 200 220  -0.06213 0.00386
         11507  220 200 220 200  -0.12712 0.01616
         11508  220 200 2ud 200  -0.05218 0.00272
         11514  220 200 2ud ud0   0.08964 0.00804
         11528  220 200 200 220   0.92086 0.84799
         11550  220 200 ud0 2ud   0.06272 0.00393
         11567  220 200 uu0 d2d  -0.05657 0.00320
         11568  220 200 u0u d2d   0.05604 0.00314
         11597  220 200 000 222  -0.05422 0.00294
         11621  2ud 200 ud0 220  -0.05354 0.00287
         11804  202 200 200 220  -0.06121 0.00375
         12081  220 ud0 ud0 220  -0.05415 0.00293
         12113  220 ud0 200 u2d   0.05035 0.00253
         12172  2ud ud0 200 220  -0.06508 0.00424
         12632  2uu dd0 200 220   0.10329 0.01067
         12908  220 020 200 220  -0.06365 0.00405
         13460  200 220 200 220  -0.05723 0.00328
         18060  020 202 200 220  -0.05035 0.00253
         19936  22u d00 u00 22d  -0.06090 0.00371
         20434  2u0 2d0 u00 22d   0.05892 0.00347
         22042  u20 20d 2u0 2d0   0.05237 0.00274

      Natural orbitals and occupation numbers for root  1
      sym 1:   1.983622   1.942971   0.059002
      sym 2:   1.939816   0.058733   0.016063
      sym 3:   1.942283   0.093865   0.043948
      sym 4:   1.949949   1.914444   0.055305

      ************************************************************************************************************************
      *                                                                                                                      *
      *                                                    Final results                                                     *
      *                                                                                                                      *
      ************************************************************************************************************************


++    Wave function specifications:
      -----------------------------

      Number of closed shell electrons          28
      Number of electrons in active shells      12
      Max number of holes in RAS1 space          0
      Max nr of electrons in RAS3 space          0
      Number of inactive orbitals               14
      Number of active orbitals                 12
      Number of secondary orbitals              72
      Spin quantum number                      0.0
      State symmetry                             1
--

++    Orbital specifications:
      -----------------------

      Symmetry species                           1   2   3   4
                                                a1  b1  a2  b2
      Frozen orbitals                            0   0   0   0
      Inactive orbitals                          7   7   0   0
      Active orbitals                            3   3   3   3
      RAS1 orbitals                              0   0   0   0
      RAS2 orbitals                              3   3   3   3
      RAS3 orbitals                              0   0   0   0
      Secondary orbitals                        27  27   9   9
      Deleted orbitals                           0   0   0   0
      Number of basis functions                 37  37  12  12
--

++    CI expansion specifications:
      ----------------------------

      Number of CSFs                         56928
      Number of determinants                107334
      Number of root(s) required                 1
      CI root used                               1
      highest root included in the CI            1
      Root passed to geometry opt.               1
--

++    Final optimization conditions:
      ------------------------------

      Average CI energy                            -229.57067459
      RASSCF energy for state  1                   -229.57067459
      Super-CI energy                                -0.00000000
      RASSCF energy change                            0.00000000
      Max change in MO coefficients              -1.421E-04
      Max non-diagonal density matrix element    -6.052E-05
      Maximum BLB matrix element                  4.376E-06
      (orbital pair   8,  31 in symmetry   1)
      Norm of electronic gradient            1.265E-05
--


      Final state energy(ies):
      ------------------------

::    RASSCF root number  1 Total energy:   -229.57067459

++    Molecular orbitals:
      -------------------

      Pseudonatural active orbitals and approximate occupation numbers




      Molecular orbitals for symmetry species 1: a1 


      Orbital                 1         2         3         4         5         6         7         8         9        10
      Energy           -11.2491  -11.2124  -11.2065   -1.0433   -0.9015   -0.7237   -0.6700   -0.7910   -0.0007    0.0232
      Occ. No.           2.0000    2.0000    2.0000    2.0000    2.0000    2.0000    2.0000    1.9836    1.9430    0.0590

     1 C1     1s         0.0003    0.3698   -0.9241   -0.1399    0.1264   -0.0746   -0.0104   -0.0076    0.0030    0.0004
     2 C1     2s         0.0004    0.0092   -0.0263    0.2507   -0.2348    0.1534    0.0364    0.0119   -0.0086    0.0021
     3 C1     *s        -0.0042    0.0005    0.0146    0.2494   -0.1958    0.0832   -0.1177    0.0927    0.0296    0.0372
     4 C1     2px        0.0002   -0.0004   -0.0003    0.0827   -0.0349   -0.1375   -0.2162    0.0093    0.3219   -0.5203
     5 C1     *px       -0.0019    0.0008    0.0028    0.0215    0.0207   -0.0785   -0.1346    0.0246    0.2236   -0.2482
     6 C1     2py       -0.0001    0.0004    0.0003   -0.1063    0.0564    0.2038    0.2766   -0.0125    0.2462   -0.3855
     7 C1     *py        0.0024   -0.0013   -0.0039   -0.0222   -0.0154    0.1201    0.1667   -0.0473    0.1383   -0.2125
     8 C1     *200       0.0001   -0.0006    0.0012    0.0008   -0.0022    0.0035    0.0041    0.0010    0.0107    0.0053
     9 C1     *110      -0.0001   -0.0005    0.0009   -0.0165    0.0204   -0.0194   -0.0096   -0.0006   -0.0062   -0.0018
    10 C1     *020       0.0000   -0.0004    0.0010    0.0060   -0.0069    0.0105    0.0066   -0.0016   -0.0107   -0.0051
    11 C1     *002       0.0000   -0.0008    0.0016   -0.0054    0.0059   -0.0032    0.0004   -0.0002   -0.0004   -0.0005
    12 C2     1s         0.0108    0.9235    0.3713   -0.1807   -0.0011    0.0828    0.0129    0.0252   -0.0020    0.0001
    13 C2     2s         0.0001    0.0253    0.0114    0.3340    0.0196   -0.1674   -0.0161   -0.0505    0.0012    0.0087
    14 C2     *s         0.0069   -0.0073   -0.0124    0.2054   -0.0128   -0.0576    0.1180   -0.1334    0.0012   -0.0335
    15 C2     2px       -0.0000   -0.0000   -0.0004   -0.0423    0.1670   -0.0383    0.1969   -0.0030    0.3282    0.5177
    16 C2     *px       -0.0011    0.0001    0.0031    0.0455    0.0284   -0.0393   -0.0704    0.0259    0.2285    0.2791
    17 C2     2py        0.0003   -0.0002    0.0003    0.0428   -0.2541    0.0249   -0.2420    0.0878    0.2407    0.3803
    18 C2     *py        0.0016    0.0005   -0.0038   -0.0633   -0.0266    0.0741    0.0820   -0.0273    0.1168    0.1726
    19 C2     *200      -0.0002   -0.0012   -0.0004    0.0002   -0.0001   -0.0046    0.0028    0.0064   -0.0114    0.0043
    20 C2     *110       0.0003   -0.0015   -0.0002   -0.0196   -0.0071    0.0164   -0.0003   -0.0059    0.0079    0.0001
    21 C2     *020      -0.0004   -0.0007   -0.0004    0.0080    0.0082   -0.0029   -0.0009   -0.0032    0.0105   -0.0056
    22 C2     *002      -0.0001   -0.0017   -0.0005   -0.0068   -0.0007    0.0037    0.0016    0.0004   -0.0003    0.0002
    23 H3     1s        -0.0002   -0.0005    0.0008    0.0527   -0.0779    0.2094    0.2106   -0.0022    0.0010   -0.0014
    24 H3     *s        -0.0009    0.0009   -0.0006    0.0062   -0.0094    0.1005    0.1101    0.0066    0.0091    0.0048
    25 C4     1s         0.9948   -0.0105   -0.0040   -0.0765   -0.1368   -0.0388   -0.0034   -0.1532    0.0178    0.0148
    26 C4     2s         0.0284   -0.0002   -0.0002    0.1478    0.2557    0.0707    0.0032    0.3053   -0.0407   -0.0402
    27 C4     *s        -0.0070    0.0024    0.0001    0.0442    0.2337    0.1074    0.0947    0.1475   -0.0738   -0.0254
    28 C4     2px        0.0007    0.0006    0.0002   -0.1115   -0.1974   -0.0406   -0.0282    0.5478   -0.0612   -0.0787
    29 C4     *px        0.0014   -0.0006   -0.0002   -0.0319   -0.1036   -0.0443   -0.0236    0.1674   -0.0215   -0.0512
    30 C4     2py        0.0006   -0.0007   -0.0001    0.0615   -0.0050   -0.3034    0.3162    0.0307   -0.0173   -0.0387
    31 C4     *py       -0.0002    0.0007    0.0002   -0.0142   -0.0043   -0.1074    0.1656    0.0029   -0.0271   -0.0390
    32 C4     *200      -0.0010   -0.0003   -0.0001    0.0026    0.0034    0.0018   -0.0001    0.0127   -0.0082   -0.0103
    33 C4     *110      -0.0001    0.0005    0.0001   -0.0049    0.0017    0.0111   -0.0112    0.0054    0.0074    0.0073
    34 C4     *020      -0.0013   -0.0005   -0.0001    0.0072    0.0104    0.0058   -0.0012   -0.0150    0.0101    0.0132
    35 C4     *002      -0.0015   -0.0001   -0.0001   -0.0038   -0.0074   -0.0018   -0.0007   -0.0051   -0.0002    0.0001
    36 H5     1s        -0.0002   -0.0001   -0.0001    0.0579    0.1585    0.1935   -0.1499   -0.0626    0.0450    0.0597
    37 H5     *s         0.0018    0.0001    0.0001    0.0174    0.0765    0.1161   -0.0857   -0.0948    0.0771    0.0651



      Molecular orbitals for symmetry species 2: b1 


      Orbital                 1         2         3         4         5         6         7         8         9        10
      Energy           -11.2475  -11.2124  -11.2066   -1.0272   -0.8545   -0.6986   -0.5594   -0.3803   -0.0000    0.0007
      Occ. No.           2.0000    2.0000    2.0000    2.0000    2.0000    2.0000    2.0000    1.9398    0.0587    0.0161

     1 C1     1s         0.0004    0.3691   -0.9244   -0.1584    0.1094   -0.0598    0.0285    0.0005   -0.0020   -0.0065
     2 C1     2s         0.0004    0.0091   -0.0263    0.2852   -0.2053    0.1345   -0.0475    0.0016    0.0069    0.0056
     3 C1     *s         0.0006    0.0003    0.0130    0.3457   -0.1889   -0.1126   -0.2062    0.0326   -0.0084   -0.3380
     4 C1     2px        0.0002   -0.0004   -0.0004    0.0908   -0.0123   -0.2396   -0.0963    0.3381   -0.5084    0.0660
     5 C1     *px       -0.0005    0.0010    0.0024    0.0382    0.0152   -0.1752   -0.0843    0.2289   -0.2644   -0.0633
     6 C1     2py       -0.0003    0.0005    0.0004   -0.1184    0.0185    0.3266    0.1118    0.2497   -0.3818    0.0405
     7 C1     *py        0.0003   -0.0013   -0.0032   -0.0511   -0.0185    0.2376    0.0997    0.1470   -0.1882    0.1666
     8 C1     *200       0.0000   -0.0006    0.0012    0.0011   -0.0024    0.0051    0.0016    0.0112    0.0052   -0.0027
     9 C1     *110      -0.0001   -0.0005    0.0009   -0.0196    0.0198   -0.0196    0.0014   -0.0060   -0.0013    0.0032
    10 C1     *020       0.0001   -0.0005    0.0009    0.0072   -0.0072    0.0116    0.0001   -0.0110   -0.0056    0.0008
    11 C1     *002      -0.0000   -0.0008    0.0016   -0.0061    0.0055   -0.0019    0.0019    0.0006   -0.0003   -0.0003
    12 C2     1s         0.0117    0.9239    0.3706   -0.1798   -0.0372    0.0751   -0.0567   -0.0040   -0.0008    0.0243
    13 C2     2s         0.0005    0.0255    0.0116    0.3274    0.0885   -0.1426    0.1234    0.0140    0.0034   -0.0540
    14 C2     *s         0.0068   -0.0090   -0.0130    0.2022    0.0429    0.0346    0.1766   -0.0012    0.0033   -0.0475
    15 C2     2px       -0.0001    0.0002   -0.0002   -0.0715    0.1664    0.0939    0.1958    0.3396    0.5247   -0.1698
    16 C2     *px        0.0028   -0.0010    0.0014    0.0956    0.0251   -0.1480   -0.0772    0.2214    0.2624   -0.4010
    17 C2     2py        0.0000   -0.0002    0.0003    0.0847   -0.2472   -0.1321   -0.2339    0.2508    0.3952   -0.0402
    18 C2     *py       -0.0030    0.0010   -0.0021   -0.1230   -0.0186    0.2017    0.0750    0.1055    0.2183    0.2816
    19 C2     *200      -0.0003   -0.0010   -0.0004   -0.0002    0.0017   -0.0011    0.0033   -0.0112    0.0055    0.0085
    20 C2     *110       0.0004   -0.0016   -0.0002   -0.0191   -0.0140    0.0120   -0.0084    0.0036   -0.0042   -0.0066
    21 C2     *020      -0.0005   -0.0006   -0.0003    0.0065    0.0097   -0.0022   -0.0000    0.0122   -0.0054   -0.0018
    22 C2     *002      -0.0001   -0.0016   -0.0004   -0.0071   -0.0020    0.0042   -0.0006    0.0006   -0.0010    0.0007
    23 H3     1s         0.0001    0.0004   -0.0008   -0.0623    0.0881   -0.2857   -0.0586   -0.0008    0.0030    0.0051
    24 H3     *s         0.0003   -0.0010    0.0008   -0.0146    0.0236   -0.1284   -0.0300   -0.0046    0.0058    0.0447
    25 C4     1s         0.9959   -0.0114   -0.0042   -0.0568   -0.1469   -0.0459    0.0232   -0.0125   -0.0249   -0.1770
    26 C4     2s         0.0287    0.0001   -0.0002    0.1156    0.2889    0.0841   -0.0509    0.0253    0.0880    0.9864
    27 C4     *s        -0.0211    0.0021    0.0013   -0.0232    0.2806    0.2524    0.0646    0.0854    0.1055    1.2180
    28 C4     2px       -0.0000    0.0003    0.0001   -0.0813   -0.2030   -0.0618    0.0264    0.0207    0.0897    1.1548
    29 C4     *px       -0.0020   -0.0021   -0.0013    0.0191   -0.0892   -0.0794   -0.0017    0.0672    0.0060    0.3607
    30 C4     2py        0.0006   -0.0005   -0.0001    0.0481    0.0313   -0.0615    0.4162    0.0043   -0.0082    0.0629
    31 C4     *py       -0.0049    0.0008    0.0014   -0.0640   -0.0044    0.0581    0.3437   -0.0371   -0.0155    0.3036
    32 C4     *200      -0.0007   -0.0005   -0.0001    0.0008   -0.0009    0.0007    0.0007   -0.0091   -0.0111   -0.0058
    33 C4     *110      -0.0003    0.0007    0.0001   -0.0067   -0.0006    0.0066   -0.0470    0.0065    0.0106    0.0150
    34 C4     *020      -0.0009   -0.0005   -0.0001    0.0061    0.0129    0.0060   -0.0055    0.0076    0.0051   -0.0881
    35 C4     *002      -0.0014   -0.0001   -0.0000   -0.0026   -0.0069   -0.0022    0.0005   -0.0001   -0.0005   -0.0184
    36 H5     1s        -0.0002   -0.0002   -0.0001    0.0380    0.1506    0.0917   -0.2859    0.0276    0.0387   -0.0507
    37 H5     *s         0.0009   -0.0004    0.0001   -0.0008    0.0484    0.0595   -0.1884    0.0354    0.0427   -0.0065



      Molecular orbitals for symmetry species 3: a2 


      Orbital                 1         2         3
      Energy            -0.4009    0.1576    0.4649
      Occ. No.           1.9423    0.0939    0.0439

     1 C1     2pz        0.3927   -0.4409    0.4875
     2 C1     *pz        0.2475   -0.2420    0.2414
     3 C1     *101       0.0135    0.0020   -0.0075
     4 C1     *011      -0.0183   -0.0010    0.0096
     5 C2     2pz        0.4202    0.2789   -0.6058
     6 C2     *pz        0.2436    0.1007   -0.3517
     7 C2     *101      -0.0116    0.0188    0.0055
     8 C2     *011       0.0127   -0.0247   -0.0056
     9 C4     2pz        0.0965    0.6494    0.6285
    10 C4     *pz        0.0659    0.3195    0.3255
    11 C4     *101      -0.0124    0.0049    0.0296
    12 C4     *011       0.0117    0.0112   -0.0061



      Molecular orbitals for symmetry species 4: b2 


      Orbital                 1         2         3
      Energy            -0.4654   -0.3192    0.3625
      Occ. No.           1.9499    1.9144    0.0553

     1 C1     2pz        0.3036   -0.3006   -0.6298
     2 C1     *pz        0.1838   -0.2200   -0.3171
     3 C1     *101       0.0117   -0.0062    0.0080
     4 C1     *011      -0.0155    0.0080   -0.0089
     5 C2     2pz        0.3633   -0.1881    0.6698
     6 C2     *pz        0.2008   -0.1517    0.3597
     7 C2     *101      -0.0034    0.0210    0.0039
     8 C2     *011       0.0047   -0.0259   -0.0071
     9 C4     2pz        0.3039    0.4768   -0.1556
    10 C4     *pz        0.1703    0.3601   -0.1516
    11 C4     *101       0.0084    0.0312   -0.0272
    12 C4     *011       0.0120   -0.0044    0.0129
--

      Von Neumann Entropy (Root   1) =  1.05874


      Mulliken population analysis for root number:  1
      -----------------------------------------------


++    Molecular charges:
      ------------------

      Mulliken charges per centre and basis function type
      ---------------------------------------------------

                C1      C2      H3      C4      H5    
      1s       1.9964  1.9965  0.5018  1.9965  0.5272
      2s       0.6616  0.6687  0.0000  0.6698  0.0000
      2px      0.6669  0.6722  0.0000  0.7589  0.0000
      2pz      0.5910  0.6030  0.0000  0.5723  0.0000
      2py      0.7240  0.7289  0.0000  0.7009  0.0000
      *s       0.5486  0.3944  0.2112  0.4583  0.2538
      *px      0.4398  0.2652  0.0000  0.1972  0.0000
      *110     0.0112  0.0097  0.0000  0.0189  0.0000
      *020     0.0364  0.0281  0.0000  0.0244  0.0000
      *002    -0.0181 -0.0170  0.0000 -0.0185  0.0000
      *200     0.0116  0.0078  0.0000  0.0215  0.0000
      *pz      0.4060  0.3738  0.0000  0.4228  0.0000
      *py      0.4153  0.1044  0.0000  0.3258  0.0000
      *101     0.0030  0.0049  0.0000  0.0081  0.0000
      *011     0.0052  0.0076  0.0000  0.0023  0.0000
      Total    6.4989  5.8481  0.7130  6.1591  0.7810

      N-E     -0.4989  0.1519  0.2870 -0.1591  0.2190

      Total electronic charge=   40.000000

      Total            charge=   -0.000000
--



      Expectation values of various properties for root number:  1
      -----------------------------------------------------------


++    Molecular properties:
      ---------------------

      Charge (e):
                      =   -0.0000
      Dipole Moment (Debye):
      Origin of the operator (Ang)=    0.0000    0.0000    0.0000
                   X=  0.0000E+00               Y= -1.5783E-01               Z=  0.0000E+00           Total=  1.5783E-01
      Quadrupole Moment (Debye*Ang):
      Origin of the operator (Ang)=    0.0000    0.0248    0.0000
                  XX= -3.0227E+01              XY=  0.0000E+00              XZ=  0.0000E+00              YY= -2.6903E+01
                  YZ=  0.0000E+00              ZZ= -3.6793E+01
      In traceless form (Debye*Ang)
                  XX=  1.6215E+00              XY=  0.0000E+00              XZ=  0.0000E+00              YY=  6.6070E+00
                  YZ=  0.0000E+00              ZZ= -8.2285E+00
--


      Input file to MOLDEN was generated!

      Average orbitals are written to the RASORB file
      Natural orbitals for root   1 are written to the RASORB.1 file
      Spin density orbitals for root   1 are written to the SPDORB.1 file

--- Stop Module: rasscf at Sat Jun 29 02:19:47 2024 /rc=_RC_ALL_IS_WELL_ ---
*** files: reactant.rasscf.molden reactant.RasOrb.1 reactant.RasOrb reactant.SpdOrb.1 xmldump
    saved to directory /home/kenya/molcas_test/0625_re
--- Module rasscf spent 37 seconds ---

.##################.
.# Happy landing! #.
.##################.

    Timing: Wall=40.20 User=39.21 System=0.93
