[Molden Format]
[N_Atoms]
                   10
[Atoms] (AU)
C1          1      6          -4.17334117      1.98618035      0.00000000
C1          2      6           4.17334117      1.98618035      0.00000000
C2          3      6          -2.81680496      0.19716478      0.00000000
C2          4      6           2.81680496      0.19716478      0.00000000
H3          5      1           5.35837138      3.59381466      0.00000000
H3          6      1          -5.35837138      3.59381466      0.00000000
C4          7      6          -1.25521675     -2.01758573      0.00000000
C4          8      6           1.25521675     -2.01758573      0.00000000
H5          9      1          -2.23214146     -3.79902477      0.00000000
H5         10      1           2.23214146     -3.79902477      0.00000000
[Charge] (Mulliken)
 -0.99771235347177090     
 -0.99771235347177090     
  0.30379008254132245     
  0.30379008254132245     
  0.57406468604584804     
  0.57406468604584804     
 -0.31819805909000465     
 -0.31819805909000465     
  0.43805564397433150     
  0.43805564397433150     
[GTO] (AU)
   1
   s   6
  3.047524880E+03  1.834737132E-03
  4.573695180E+02  1.403732281E-02
  1.039486850E+02  6.884262227E-02
  2.921015530E+01  2.321844432E-01
  9.286662960E+00  4.679413484E-01
  3.163926960E+00  3.623119853E-01
   s   3
  7.868272350E+00 -1.193324198E-01
  1.881288540E+00 -1.608541517E-01
  5.442492580E-01  1.143456438E+00
   s   1
  1.687144782E-01  1.000000000E+00
   p   3
  7.868272350E+00  6.899906659E-02
  1.881288540E+00  3.164239610E-01
  5.442492580E-01  7.443082909E-01
   p   1
  1.687144782E-01  1.000000000E+00
   d   1
  8.000000000E-01  1.000000000E+00
 
   2
   s   6
  3.047524880E+03  1.834737132E-03
  4.573695180E+02  1.403732281E-02
  1.039486850E+02  6.884262227E-02
  2.921015530E+01  2.321844432E-01
  9.286662960E+00  4.679413484E-01
  3.163926960E+00  3.623119853E-01
   s   3
  7.868272350E+00 -1.193324198E-01
  1.881288540E+00 -1.608541517E-01
  5.442492580E-01  1.143456438E+00
   s   1
  1.687144782E-01  1.000000000E+00
   p   3
  7.868272350E+00  6.899906659E-02
  1.881288540E+00  3.164239610E-01
  5.442492580E-01  7.443082909E-01
   p   1
  1.687144782E-01  1.000000000E+00
   d   1
  8.000000000E-01  1.000000000E+00
 
   3
   s   6
  3.047524880E+03  1.834737132E-03
  4.573695180E+02  1.403732281E-02
  1.039486850E+02  6.884262227E-02
  2.921015530E+01  2.321844432E-01
  9.286662960E+00  4.679413484E-01
  3.163926960E+00  3.623119853E-01
   s   3
  7.868272350E+00 -1.193324198E-01
  1.881288540E+00 -1.608541517E-01
  5.442492580E-01  1.143456438E+00
   s   1
  1.687144782E-01  1.000000000E+00
   p   3
  7.868272350E+00  6.899906659E-02
  1.881288540E+00  3.164239610E-01
  5.442492580E-01  7.443082909E-01
   p   1
  1.687144782E-01  1.000000000E+00
   d   1
  8.000000000E-01  1.000000000E+00
 
   4
   s   6
  3.047524880E+03  1.834737132E-03
  4.573695180E+02  1.403732281E-02
  1.039486850E+02  6.884262227E-02
  2.921015530E+01  2.321844432E-01
  9.286662960E+00  4.679413484E-01
  3.163926960E+00  3.623119853E-01
   s   3
  7.868272350E+00 -1.193324198E-01
  1.881288540E+00 -1.608541517E-01
  5.442492580E-01  1.143456438E+00
   s   1
  1.687144782E-01  1.000000000E+00
   p   3
  7.868272350E+00  6.899906659E-02
  1.881288540E+00  3.164239610E-01
  5.442492580E-01  7.443082909E-01
   p   1
  1.687144782E-01  1.000000000E+00
   d   1
  8.000000000E-01  1.000000000E+00
 
   5
   s   3
  1.873113696E+01  3.349460434E-02
  2.825394365E+00  2.347269535E-01
  6.401216923E-01  8.137573261E-01
   s   1
  1.612777588E-01  1.000000000E+00
 
   6
   s   3
  1.873113696E+01  3.349460434E-02
  2.825394365E+00  2.347269535E-01
  6.401216923E-01  8.137573261E-01
   s   1
  1.612777588E-01  1.000000000E+00
 
   7
   s   6
  3.047524880E+03  1.834737132E-03
  4.573695180E+02  1.403732281E-02
  1.039486850E+02  6.884262227E-02
  2.921015530E+01  2.321844432E-01
  9.286662960E+00  4.679413484E-01
  3.163926960E+00  3.623119853E-01
   s   3
  7.868272350E+00 -1.193324198E-01
  1.881288540E+00 -1.608541517E-01
  5.442492580E-01  1.143456438E+00
   s   1
  1.687144782E-01  1.000000000E+00
   p   3
  7.868272350E+00  6.899906659E-02
  1.881288540E+00  3.164239610E-01
  5.442492580E-01  7.443082909E-01
   p   1
  1.687144782E-01  1.000000000E+00
   d   1
  8.000000000E-01  1.000000000E+00
 
   8
   s   6
  3.047524880E+03  1.834737132E-03
  4.573695180E+02  1.403732281E-02
  1.039486850E+02  6.884262227E-02
  2.921015530E+01  2.321844432E-01
  9.286662960E+00  4.679413484E-01
  3.163926960E+00  3.623119853E-01
   s   3
  7.868272350E+00 -1.193324198E-01
  1.881288540E+00 -1.608541517E-01
  5.442492580E-01  1.143456438E+00
   s   1
  1.687144782E-01  1.000000000E+00
   p   3
  7.868272350E+00  6.899906659E-02
  1.881288540E+00  3.164239610E-01
  5.442492580E-01  7.443082909E-01
   p   1
  1.687144782E-01  1.000000000E+00
   d   1
  8.000000000E-01  1.000000000E+00
 
   9
   s   3
  1.873113696E+01  3.349460434E-02
  2.825394365E+00  2.347269535E-01
  6.401216923E-01  8.137573261E-01
   s   1
  1.612777588E-01  1.000000000E+00
 
  10
   s   3
  1.873113696E+01  3.349460434E-02
  2.825394365E+00  2.347269535E-01
  6.401216923E-01  8.137573261E-01
   s   1
  1.612777588E-01  1.000000000E+00
 
[MO]
Sym=     1a1 
Ene=   -11.2490
Spin= Alpha
Occup=    2.00000
   1         0.00021160
   2         0.00025936
   3        -0.00298212
   4         0.00011231
   5        -0.00009743
   6         0.00000000
   7        -0.00135410
   8         0.00172572
   9         0.00000000
  10         0.00006767
  11         0.00004880
  12         0.00000482
  13        -0.00006154
  14         0.00000000
  15         0.00000000
  16         0.00021160
  17         0.00025936
  18        -0.00298212
  19        -0.00011231
  20        -0.00009743
  21         0.00000000
  22         0.00135410
  23         0.00172572
  24         0.00000000
  25         0.00006767
  26         0.00004880
  27         0.00000482
  28         0.00006154
  29         0.00000000
  30         0.00000000
  31         0.00762016
  32         0.00005447
  33         0.00490576
  34        -0.00002515
  35         0.00021030
  36         0.00000000
  37        -0.00080175
  38         0.00110838
  39         0.00000000
  40        -0.00023196
  41        -0.00055111
  42        -0.00015009
  43         0.00018250
  44         0.00000000
  45         0.00000000
  46         0.00762016
  47         0.00005447
  48         0.00490576
  49         0.00002515
  50         0.00021030
  51         0.00000000
  52         0.00080175
  53         0.00110838
  54         0.00000000
  55        -0.00023196
  56        -0.00055111
  57        -0.00015009
  58        -0.00018250
  59         0.00000000
  60         0.00000000
  61        -0.00011089
  62        -0.00065866
  63        -0.00011089
  64        -0.00065866
  65         0.70345525
  66         0.02006436
  67        -0.00493143
  68         0.00047716
  69         0.00039114
  70         0.00000000
  71         0.00100354
  72        -0.00010878
  73         0.00000000
  74        -0.00127502
  75        -0.00163476
  76        -0.00187245
  77        -0.00007473
  78         0.00000000
  79         0.00000000
  80         0.70345525
  81         0.02006436
  82        -0.00493143
  83        -0.00047716
  84         0.00039114
  85         0.00000000
  86        -0.00100354
  87        -0.00010878
  88         0.00000000
  89        -0.00127502
  90        -0.00163476
  91        -0.00187245
  92         0.00007473
  93         0.00000000
  94         0.00000000
  95        -0.00016449
  96         0.00124158
  97        -0.00016449
  98         0.00124158
Sym=     2a1 
Ene=   -11.2120
Spin= Alpha
Occup=    2.00000
   1         0.26139277
   2         0.00650086
   3         0.00034176
   4        -0.00025173
   5         0.00029166
   6         0.00000000
   7         0.00055939
   8        -0.00092507
   9         0.00000000
  10        -0.00073109
  11        -0.00049331
  12        -0.00095626
  13        -0.00036945
  14         0.00000000
  15         0.00000000
  16         0.26139277
  17         0.00650086
  18         0.00034176
  19         0.00025173
  20         0.00029166
  21         0.00000000
  22        -0.00055939
  23        -0.00092507
  24         0.00000000
  25        -0.00073109
  26        -0.00049331
  27        -0.00095626
  28         0.00036945
  29         0.00000000
  30         0.00000000
  31         0.65304732
  32         0.01789117
  33        -0.00519026
  34        -0.00003353
  35        -0.00014296
  36         0.00000000
  37         0.00005886
  38         0.00034849
  39         0.00000000
  40        -0.00144077
  41        -0.00087719
  42        -0.00212636
  43        -0.00103800
  44         0.00000000
  45         0.00000000
  46         0.65304732
  47         0.01789117
  48        -0.00519026
  49         0.00003353
  50        -0.00014296
  51         0.00000000
  52        -0.00005886
  53         0.00034849
  54         0.00000000
  55        -0.00144077
  56        -0.00087719
  57        -0.00212636
  58         0.00103800
  59         0.00000000
  60         0.00000000
  61        -0.00031970
  62         0.00065527
  63        -0.00031970
  64         0.00065527
  65        -0.00745141
  66        -0.00016284
  67         0.00168113
  68         0.00039640
  69        -0.00048082
  70         0.00000000
  71        -0.00041984
  72         0.00051548
  73         0.00000000
  74        -0.00030951
  75        -0.00059793
  76        -0.00016025
  77         0.00037419
  78         0.00000000
  79         0.00000000
  80        -0.00745141
  81        -0.00016284
  82         0.00168113
  83        -0.00039640
  84        -0.00048082
  85         0.00000000
  86         0.00041984
  87         0.00051548
  88         0.00000000
  89        -0.00030951
  90        -0.00059793
  91        -0.00016025
  92        -0.00037419
  93         0.00000000
  94         0.00000000
  95        -0.00008531
  96         0.00007648
  97        -0.00008531
  98         0.00007648
Sym=     3a1 
Ene=   -11.2070
Spin= Alpha
Occup=    2.00000
   1         0.65350871
   2         0.01856619
   3        -0.01034500
   4         0.00023153
   5        -0.00022101
   6         0.00000000
   7        -0.00198273
   8         0.00272636
   9         0.00000000
  10        -0.00149231
  11        -0.00117340
  12        -0.00193337
  13        -0.00066465
  14         0.00000000
  15         0.00000000
  16         0.65350871
  17         0.01856619
  18        -0.01034500
  19        -0.00023153
  20        -0.00022101
  21         0.00000000
  22         0.00198273
  23         0.00272636
  24         0.00000000
  25        -0.00149231
  26        -0.00117340
  27        -0.00193337
  28         0.00066465
  29         0.00000000
  30         0.00000000
  31        -0.26239548
  32        -0.00808941
  33         0.00879886
  34         0.00026594
  35        -0.00022323
  36         0.00000000
  37        -0.00216491
  38         0.00270793
  39         0.00000000
  40         0.00054011
  41         0.00045239
  42         0.00063837
  43         0.00014707
  44         0.00000000
  45         0.00000000
  46        -0.26239548
  47        -0.00808941
  48         0.00879886
  49        -0.00026594
  50        -0.00022323
  51         0.00000000
  52         0.00216491
  53         0.00270793
  54         0.00000000
  55         0.00054011
  56         0.00045239
  57         0.00063837
  58        -0.00014707
  59         0.00000000
  60         0.00000000
  61        -0.00058608
  62         0.00042111
  63        -0.00058608
  64         0.00042111
  65         0.00280756
  66         0.00011408
  67        -0.00010132
  68        -0.00011909
  69         0.00010522
  70         0.00000000
  71         0.00011745
  72        -0.00012987
  73         0.00000000
  74         0.00007113
  75         0.00012740
  76         0.00006993
  77        -0.00005520
  78         0.00000000
  79         0.00000000
  80         0.00280756
  81         0.00011408
  82        -0.00010132
  83         0.00011909
  84         0.00010522
  85         0.00000000
  86        -0.00011745
  87        -0.00012987
  88         0.00000000
  89         0.00007113
  90         0.00012740
  91         0.00006993
  92         0.00005520
  93         0.00000000
  94         0.00000000
  95         0.00005513
  96        -0.00005420
  97         0.00005513
  98        -0.00005420
Sym=     4a1 
Ene=    -1.0433
Spin= Alpha
Occup=    2.00000
   1        -0.09889681
   2         0.17726063
   3         0.17637269
   4         0.05856648
   5        -0.07509365
   6         0.00000000
   7         0.01524581
   8        -0.01567718
   9         0.00000000
  10         0.00101967
  11         0.00731632
  12        -0.00659188
  13        -0.01168808
  14         0.00000000
  15         0.00000000
  16        -0.09889681
  17         0.17726063
  18         0.17637269
  19        -0.05856648
  20        -0.07509365
  21         0.00000000
  22        -0.01524581
  23        -0.01567718
  24         0.00000000
  25         0.00101967
  26         0.00731632
  27        -0.00659188
  28         0.01168808
  29         0.00000000
  30         0.00000000
  31        -0.12778239
  32         0.23614116
  33         0.14522371
  34        -0.02983980
  35         0.03029382
  36         0.00000000
  37         0.03220279
  38        -0.04474759
  39         0.00000000
  40         0.00024558
  41         0.00980911
  42        -0.00833772
  43        -0.01384075
  44         0.00000000
  45         0.00000000
  46        -0.12778239
  47         0.23614116
  48         0.14522371
  49         0.02983980
  50         0.03029382
  51         0.00000000
  52        -0.03220279
  53        -0.04474759
  54         0.00000000
  55         0.00024558
  56         0.00980911
  57        -0.00833772
  58         0.01384075
  59         0.00000000
  60         0.00000000
  61         0.03725246
  62         0.00437418
  63         0.03725246
  64         0.00437418
  65        -0.05407207
  66         0.10450920
  67         0.03120299
  68        -0.07887904
  69         0.04345761
  70         0.00000000
  71        -0.02254109
  72        -0.01004305
  73         0.00000000
  74         0.00313981
  75         0.00887727
  76        -0.00471071
  77        -0.00345745
  78         0.00000000
  79         0.00000000
  80        -0.05407207
  81         0.10450920
  82         0.03120299
  83         0.07887904
  84         0.04345761
  85         0.00000000
  86         0.02254109
  87        -0.01004305
  88         0.00000000
  89         0.00313981
  90         0.00887727
  91        -0.00471071
  92         0.00345745
  93         0.00000000
  94         0.00000000
  95         0.04095399
  96         0.01234960
  97         0.04095399
  98         0.01234960
Sym=     5a1 
Ene=    -0.9014
Spin= Alpha
Occup=    2.00000
   1         0.08935654
   2        -0.16603524
   3        -0.13846010
   4        -0.02474768
   5         0.03982182
   6         0.00000000
   7         0.01460925
   8        -0.01090758
   9         0.00000000
  10        -0.00269448
  11        -0.00841291
  12         0.00722545
  13         0.01439113
  14         0.00000000
  15         0.00000000
  16         0.08935654
  17        -0.16603524
  18        -0.13846010
  19         0.02474768
  20         0.03982182
  21         0.00000000
  22        -0.01460925
  23        -0.01090758
  24         0.00000000
  25        -0.00269448
  26        -0.00841291
  27         0.00722545
  28        -0.01439113
  29         0.00000000
  30         0.00000000
  31        -0.00075653
  32         0.01388310
  33        -0.00908032
  34         0.11803590
  35        -0.17969333
  36         0.00000000
  37         0.02005889
  38        -0.01879522
  39         0.00000000
  40        -0.00017730
  41         0.01008043
  42        -0.00091358
  43        -0.00504248
  44         0.00000000
  45         0.00000000
  46        -0.00075653
  47         0.01388310
  48        -0.00908032
  49        -0.11803590
  50        -0.17969333
  51         0.00000000
  52        -0.02005889
  53        -0.01879522
  54         0.00000000
  55        -0.00017730
  56         0.01008043
  57        -0.00091358
  58         0.00504248
  59         0.00000000
  60         0.00000000
  61        -0.05509051
  62        -0.00662255
  63        -0.05509051
  64        -0.00662255
  65        -0.09676308
  66         0.18077936
  67         0.16522562
  68        -0.13961336
  69        -0.00355445
  70         0.00000000
  71        -0.07326880
  72        -0.00306723
  73         0.00000000
  74         0.00419507
  75         0.01276712
  76        -0.00909697
  77         0.00121440
  78         0.00000000
  79         0.00000000
  80        -0.09676308
  81         0.18077936
  82         0.16522562
  83         0.13961336
  84        -0.00355445
  85         0.00000000
  86         0.07326880
  87        -0.00306723
  88         0.00000000
  89         0.00419507
  90         0.01276712
  91        -0.00909697
  92        -0.00121440
  93         0.00000000
  94         0.00000000
  95         0.11211324
  96         0.05412018
  97         0.11211324
  98         0.05412018
Sym=     6a1 
Ene=    -0.7237
Spin= Alpha
Occup=    2.00000
   1        -0.05272653
   2         0.10851806
   3         0.05884229
   4        -0.09720544
   5         0.14408623
   6         0.00000000
   7        -0.05549553
   8         0.08491442
   9         0.00000000
  10         0.00422711
  11         0.01288757
  12        -0.00394064
  13        -0.01371866
  14         0.00000000
  15         0.00000000
  16        -0.05272653
  17         0.10851806
  18         0.05884229
  19         0.09720544
  20         0.14408623
  21         0.00000000
  22         0.05549553
  23         0.08491442
  24         0.00000000
  25         0.00422711
  26         0.01288757
  27        -0.00394064
  28         0.01371866
  29         0.00000000
  30         0.00000000
  31         0.05856271
  32        -0.11836360
  33        -0.04072564
  34        -0.02710538
  35         0.01765845
  36         0.00000000
  37        -0.02781849
  38         0.05237798
  39         0.00000000
  40        -0.00558797
  41        -0.00359933
  42         0.00448020
  43         0.01159987
  44         0.00000000
  45         0.00000000
  46         0.05856271
  47        -0.11836360
  48        -0.04072564
  49         0.02710538
  50         0.01765845
  51         0.00000000
  52         0.02781849
  53         0.05237798
  54         0.00000000
  55        -0.00558797
  56        -0.00359933
  57         0.00448020
  58        -0.01159987
  59         0.00000000
  60         0.00000000
  61         0.14807347
  62         0.07106769
  63         0.14807347
  64         0.07106769
  65        -0.02742815
  66         0.04996038
  67         0.07593167
  68        -0.02865844
  69        -0.21456493
  70         0.00000000
  71        -0.03131359
  72        -0.07594123
  73         0.00000000
  74         0.00214910
  75         0.00711231
  76        -0.00218251
  77         0.00782957
  78         0.00000000
  79         0.00000000
  80        -0.02742815
  81         0.04996038
  82         0.07593167
  83         0.02865844
  84        -0.21456493
  85         0.00000000
  86         0.03131359
  87        -0.07594123
  88         0.00000000
  89         0.00214910
  90         0.00711231
  91        -0.00218251
  92        -0.00782957
  93         0.00000000
  94         0.00000000
  95         0.13678867
  96         0.08207865
  97         0.13678867
  98         0.08207865
Sym=     7a1 
Ene=    -0.6700
Spin= Alpha
Occup=    2.00000
   1        -0.00736643
   2         0.02576038
   3        -0.08322444
   4        -0.15294050
   5         0.19555987
   6         0.00000000
   7        -0.09520762
   8         0.11784049
   9         0.00000000
  10         0.00500250
  11         0.00811626
  12         0.00048334
  13        -0.00678315
  14         0.00000000
  15         0.00000000
  16        -0.00736643
  17         0.02576038
  18        -0.08322444
  19         0.15294050
  20         0.19555987
  21         0.00000000
  22         0.09520762
  23         0.11784049
  24         0.00000000
  25         0.00500250
  26         0.00811626
  27         0.00048334
  28         0.00678315
  29         0.00000000
  30         0.00000000
  31         0.00909561
  32        -0.01139641
  33         0.08345221
  34         0.13918613
  35        -0.17112462
  36         0.00000000
  37        -0.04982059
  38         0.05797222
  39         0.00000000
  40         0.00341603
  41        -0.00113066
  42         0.00196504
  43        -0.00021181
  44         0.00000000
  45         0.00000000
  46         0.00909561
  47        -0.01139641
  48         0.08345221
  49        -0.13918613
  50        -0.17112462
  51         0.00000000
  52         0.04982059
  53         0.05797222
  54         0.00000000
  55         0.00341603
  56        -0.00113066
  57         0.00196504
  58         0.00021181
  59         0.00000000
  60         0.00000000
  61         0.14893848
  62         0.07787724
  63         0.14893848
  64         0.07787724
  65        -0.00237142
  66         0.00229812
  67         0.06695005
  68        -0.01994818
  69         0.22356182
  70         0.00000000
  71        -0.01669324
  72         0.11706657
  73         0.00000000
  74        -0.00009934
  75        -0.00143150
  76        -0.00079808
  77        -0.00791838
  78         0.00000000
  79         0.00000000
  80        -0.00237142
  81         0.00229812
  82         0.06695005
  83         0.01994818
  84         0.22356182
  85         0.00000000
  86         0.01669324
  87         0.11706657
  88         0.00000000
  89        -0.00009934
  90        -0.00143150
  91        -0.00079808
  92         0.00791838
  93         0.00000000
  94         0.00000000
  95        -0.10595068
  96        -0.06061422
  97        -0.10595068
  98        -0.06061422
Sym=     8a1 
Ene=    -0.7910
Spin= Alpha
Occup=    1.98362
   1        -0.00533741
   2         0.00837616
   3         0.06551356
   4         0.00654675
   5        -0.00887247
   6         0.00000000
   7         0.01740057
   8        -0.03347356
   9         0.00000000
  10         0.00119888
  11        -0.00192145
  12        -0.00026453
  13        -0.00042665
  14         0.00000000
  15         0.00000000
  16        -0.00533741
  17         0.00837616
  18         0.06551356
  19        -0.00654675
  20        -0.00887247
  21         0.00000000
  22        -0.01740057
  23        -0.03347356
  24         0.00000000
  25         0.00119888
  26        -0.00192145
  27        -0.00026453
  28         0.00042665
  29         0.00000000
  30         0.00000000
  31         0.01784341
  32        -0.03572901
  33        -0.09432713
  34        -0.00212864
  35         0.06204907
  36         0.00000000
  37         0.01828299
  38        -0.01933406
  39         0.00000000
  40         0.00781579
  41        -0.00387645
  42         0.00053632
  43        -0.00417847
  44         0.00000000
  45         0.00000000
  46         0.01784341
  47        -0.03572901
  48        -0.09432713
  49         0.00212864
  50         0.06204907
  51         0.00000000
  52        -0.01828299
  53        -0.01933406
  54         0.00000000
  55         0.00781579
  56        -0.00387645
  57         0.00053632
  58         0.00417847
  59         0.00000000
  60         0.00000000
  61        -0.00157685
  62         0.00467086
  63        -0.00157685
  64         0.00467086
  65        -0.10836618
  66         0.21591020
  67         0.10430125
  68         0.38735377
  69         0.02174342
  70         0.00000000
  71         0.11833334
  72         0.00204657
  73         0.00000000
  74         0.01553300
  75        -0.01835300
  76        -0.00625263
  77         0.00380908
  78         0.00000000
  79         0.00000000
  80        -0.10836618
  81         0.21591020
  82         0.10430125
  83        -0.38735377
  84         0.02174342
  85         0.00000000
  86        -0.11833334
  87         0.00204657
  88         0.00000000
  89         0.01553300
  90        -0.01835300
  91        -0.00625263
  92        -0.00380908
  93         0.00000000
  94         0.00000000
  95        -0.04427820
  96        -0.06701613
  97        -0.04427820
  98        -0.06701613
Sym=     9a1 
Ene=    -0.0007
Spin= Alpha
Occup=    1.94297
   1         0.00219354
   2        -0.00617913
   3         0.02083398
   4         0.22757588
   5         0.17416065
   6         0.00000000
   7         0.15812099
   8         0.09780423
   9         0.00000000
  10         0.01304391
  11        -0.01306303
  12        -0.00044112
  13        -0.00440072
  14         0.00000000
  15         0.00000000
  16         0.00219354
  17        -0.00617913
  18         0.02083398
  19        -0.22757588
  20         0.17416065
  21         0.00000000
  22        -0.15812099
  23         0.09780423
  24         0.00000000
  25         0.01304391
  26        -0.01306303
  27        -0.00044112
  28         0.00440072
  29         0.00000000
  30         0.00000000
  31        -0.00135950
  32         0.00078988
  33         0.00084407
  34         0.23213096
  35         0.17016164
  36         0.00000000
  37         0.16151731
  38         0.08264384
  39         0.00000000
  40        -0.01390203
  41         0.01290361
  42        -0.00031376
  43         0.00558933
  44         0.00000000
  45         0.00000000
  46        -0.00135950
  47         0.00078988
  48         0.00084407
  49        -0.23213096
  50         0.17016164
  51         0.00000000
  52        -0.16151731
  53         0.08264384
  54         0.00000000
  55        -0.01390203
  56         0.01290361
  57        -0.00031376
  58        -0.00558933
  59         0.00000000
  60         0.00000000
  61         0.00068992
  62         0.00644202
  63         0.00068992
  64         0.00644202
  65         0.01260493
  66        -0.02873384
  67        -0.05214056
  68        -0.04328984
  69        -0.01225180
  70         0.00000000
  71        -0.01518214
  72        -0.01915249
  73         0.00000000
  74        -0.01008314
  75         0.01232798
  76        -0.00020049
  77         0.00523346
  78         0.00000000
  79         0.00000000
  80         0.01260493
  81        -0.02873384
  82        -0.05214056
  83         0.04328984
  84        -0.01225180
  85         0.00000000
  86         0.01518214
  87        -0.01915249
  88         0.00000000
  89        -0.01008314
  90         0.01232798
  91        -0.00020049
  92        -0.00523346
  93         0.00000000
  94         0.00000000
  95         0.03179899
  96         0.05455033
  97         0.03179899
  98         0.05455033
Sym=    10a1 
Ene=     0.0232
Spin= Alpha
Occup=    0.05900
   1         0.00022403
   2         0.00169421
   3         0.02686665
   4        -0.36786311
   5        -0.27270605
   6         0.00000000
   7        -0.17530445
   8        -0.15047992
   9         0.00000000
  10         0.00655203
  11        -0.00627606
  12        -0.00059029
  13        -0.00125910
  14         0.00000000
  15         0.00000000
  16         0.00022403
  17         0.00169421
  18         0.02686665
  19         0.36786311
  20        -0.27270605
  21         0.00000000
  22         0.17530445
  23        -0.15047992
  24         0.00000000
  25         0.00655203
  26        -0.00627606
  27        -0.00059029
  28         0.00125910
  29         0.00000000
  30         0.00000000
  31         0.00008543
  32         0.00595621
  33        -0.02428057
  34         0.36614112
  35         0.26882995
  36         0.00000000
  37         0.19757449
  38         0.12181214
  39         0.00000000
  40         0.00531930
  41        -0.00682868
  42         0.00028134
  43        -0.00000575
  44         0.00000000
  45         0.00000000
  46         0.00008543
  47         0.00595621
  48        -0.02428057
  49        -0.36614112
  50         0.26882995
  51         0.00000000
  52        -0.19757449
  53         0.12181214
  54         0.00000000
  55         0.00531930
  56        -0.00682868
  57         0.00028134
  58         0.00000575
  59         0.00000000
  60         0.00000000
  61        -0.00105957
  62         0.00338613
  63        -0.00105957
  64         0.00338613
  65         0.01048564
  66        -0.02841707
  67        -0.01797857
  68        -0.05565271
  69        -0.02732609
  70         0.00000000
  71        -0.03620492
  72        -0.02755000
  73         0.00000000
  74        -0.01263555
  75         0.01619112
  76         0.00010518
  77         0.00519599
  78         0.00000000
  79         0.00000000
  80         0.01048564
  81        -0.02841707
  82        -0.01797857
  83         0.05565271
  84        -0.02732609
  85         0.00000000
  86         0.03620492
  87        -0.02755000
  88         0.00000000
  89        -0.01263555
  90         0.01619112
  91         0.00010518
  92        -0.00519599
  93         0.00000000
  94         0.00000000
  95         0.04219049
  96         0.04603250
  97         0.04219049
  98         0.04603250
Sym=    11a1 
Ene=     0.2749
Spin= Alpha
Occup=    0.00000
   1        -0.06487686
   2         0.12559734
   3        -0.69233136
   4        -0.08111202
   5         0.10827544
   6         0.00000000
   7        -1.26320865
   8         1.62880013
   9         0.00000000
  10        -0.00213690
  11        -0.01288000
  12         0.00793547
  13         0.01623764
  14         0.00000000
  15         0.00000000
  16        -0.06487686
  17         0.12559734
  18        -0.69233136
  19         0.08111202
  20         0.10827544
  21         0.00000000
  22         1.26320865