   This run of MOLCAS is using the pymolcas driver

                             OPE
                             OPE          NMOL  CASOP  ENMOLC A   SO
                 OPE        NMOLC        AS  OP EN  MO LC     AS  OP
                OPENM       OL CA        SO  PE NM  OL CA     SOP EN
                OP EN      MO   LC       AS  OP ENMOL  CASO   PENMOL
                OP  EN     MO   LC       AS  OP EN     MO     LC ASO
               OP   E  NMOL  C  AS       OP  EN MO     LC     AS  OP
               OP  E   NMO   LC AS        OPEN  MO     LCASOP EN   M
               O  PEN   MO  LCA  SO
            OPE   NMO   L   CAS    OP
        OPENMOL  CASOP     ENMOL   CASOPE
     OPENMOLCA   SOPENMOLCASOPEN   MOLCASOPE
    OPENMOLCAS   OP           EN   MOL    CAS
    OPENMOLCAS       OP  ENM        O     LCA
    OPENMOLCAS    OPEN  MOLCASO     P  E  NMO
    OPENMOLCAS     OP               E  N  MOL
    OPENMOLCA   SO           PENM   O  L  CAS    OPEN    MO    LCAS
    OPENMOLCA   SOP           ENM   O  L  CAS   OP  EN  MOLC  AS   O
    OPENMOLCA   SOPE           NM      O  LCA   S      OP  EN MO
    OPENMOLC                AS         O  PEN   M      OL  CA  SOPE
    OPENMO        LCASOPE  NMOL        C  ASO   P      ENMOLC     AS
    OPE     NMO      LCA  SO     P     E   NM   OL  CA SO  PE N   MO
          OPENMOLCA            SOPE   NMO        LCAS  O    P  ENMO
     OPENMOLCASOPENMOLCASOPENMOLCASOPENMOLCA
        OPENMOLCASOPENMOLCASOPENMOLCASOPE
            OPENMOLCASOPENMOLCASOPENM
               OPENMOLCASOPENMOLCA        version: 24.02
                   OPENMOLCASO
                       OPE                tag: 428-g03afa2e9a

 OpenMolcas is free software; you can redistribute it and/or modify it
 under the terms of the GNU Lesser General Public License version 2.1.
 OpenMolcas is distributed in the hope that it will be useful, but it
 is provided "as is" and without any express or implied warranties.
 For more details see the full text of the license in the file
 LICENSE or in <http://www.gnu.org/licenses/>.

                 Copyright (C) The OpenMolcas Authors
           For the author list and the recommended citation,
                   consult the file CONTRIBUTORS.md

           *************************************************
           * pymolcas version py2.28                       *
           *   build c4a6d18ded8cb6cad61d2372a9abd97c      *
           *   (after the EMIL interpreter by V. Veryazov) *
           *************************************************

configuration info
------------------
Host name: DESKTOP-ET1S6F4 (Linux)
C Compiler ID: GNU
C flags: -std=gnu99 -fopenmp
Fortran Compiler ID: GNU
Fortran flags: -fno-aggressive-loop-optimizations -cpp -fdefault-integer-8 -fopenmp
Definitions: _WARNING_WORKAROUND_;_MOLCAS_;_I8_;_LINUX_
Parallel: OFF (GA=OFF)


   ----------------------------------------------------------------------
  |
  |           Project: reactant
  |    Submitted from: /home/kenya/molcas_test/0625_re
  |      Scratch area: /tmp/reactant
  |   Save outputs to: /home/kenya/molcas_test/0625_re
  |            Molcas: /home/kenya/OpenMolcas/builds/gnu_dev_omp
  |
  | Scratch area is NOT empty
  |
  |    MOLCAS_DRIVER = /home/kenya/OpenMolcas/builds/gnu_dev_omp/pymolcas
  |    MOLCAS_NPROCS = 1
  |    MOLCAS_SOURCE = /home/kenya/OpenMolcas
  | MOLCAS_STRUCTURE = 0
  |
   ----------------------------------------------------------------------

++ ---------   Input file   ---------

&GATEWAY
Coord = reactant.Opt.xyz
  Basis = 6-31G*
  Group = Full
  NoCD

&SEWARD

&SCF

-- ----------------------------------

--- Start Module: gateway at Fri Jun 28 17:08:17 2024 ---

()()()()()()()()()()()()()()()()()()()()()()()()()()()()()()()()()()()()()()()()()()()()()()()()()()

                                              &GATEWAY

                                   only a single process is used
                       available to each process: 2.0 GB of memory, 1 thread
                                            pid: 159818
()()()()()()()()()()()()()()()()()()()()()()()()()()()()()()()()()()()()()()()()()()()()()()()()()()

      Found SYMMETRY generators: xz z

++    Symmetry information:
      ---------------------

                    --- Group Generators ---
                    Rotation around the y-axis  
                    Reflection in the xy-plane  

                    Character Table for C2v

                             E   C2(y) s(xy) s(yz)
                    a1       1     1     1     1  y
                    b1       1    -1     1    -1  x, xy, Rz
                    a2       1     1    -1    -1  xz, Ry, I
                    b2       1    -1    -1     1  z, yz, Rx
--


++    Basis set information:
      ----------------------


      Basis set label: C.6-31G**....

      Electronic valence basis set:
      ------------------
      Associated Effective Charge   6.000000 au
      Associated Actual Charge      6.000000 au
      Nuclear Model: Point charge

      Shell  nPrim  nBasis  Cartesian Spherical Contaminant
         s      10       3        X                  
         p       4       2        X                  
         d       1       1        X                  


      Basis set label: H.6-31G....

      Electronic valence basis set:
      ------------------
      Associated Effective Charge   1.000000 au
      Associated Actual Charge      1.000000 au
      Nuclear Model: Point charge

      Shell  nPrim  nBasis  Cartesian Spherical Contaminant
         s       4       2        X                  


      Basis set label: C.6-31G**....

      Electronic valence basis set:
      ------------------
      Associated Effective Charge   6.000000 au
      Associated Actual Charge      6.000000 au
      Nuclear Model: Point charge

      Shell  nPrim  nBasis  Cartesian Spherical Contaminant
         s      10       3        X                  
         p       4       2        X                  
         d       1       1        X                  


      Basis set label: H.6-31G....

      Electronic valence basis set:
      ------------------
      Associated Effective Charge   1.000000 au
      Associated Actual Charge      1.000000 au
      Nuclear Model: Point charge

      Shell  nPrim  nBasis  Cartesian Spherical Contaminant
         s       4       2        X                  
--


++    Molecular structure info:
      -------------------------

                    ************************************************ 
                    **** Cartesian Coordinates / Bohr, Angstrom **** 
                    ************************************************ 

     Center  Label                x              y              z                     x              y              z
        1      C1              -4.173341       1.986180       0.000000             -2.208437       1.051041       0.000000
        2      C1               4.173341       1.986180       0.000000              2.208437       1.051041       0.000000
        3      C2              -2.816805       0.197165       0.000000             -1.490589       0.104335       0.000000
        4      C2               2.816805       0.197165       0.000000              1.490589       0.104335       0.000000
        5      H3               5.358371       3.593815       0.000000              2.835528       1.901765       0.000000
        6      H3              -5.358371       3.593815       0.000000             -2.835528       1.901765       0.000000
        7      C4              -1.255217      -2.017586       0.000000             -0.664232      -1.067660       0.000000
        8      C4               1.255217      -2.017586       0.000000              0.664232      -1.067660       0.000000
        9      H5              -2.232141      -3.799025       0.000000             -1.181198      -2.010357       0.000000
       10      H5               2.232141      -3.799025       0.000000              1.181198      -2.010357       0.000000

                    *************************************** 
                    *    InterNuclear Distances / Bohr    * 
                    *************************************** 

               1 C1            2 C1            3 C2            4 C2            5 H3            6 H3    
    1 C1       0.000000
    2 C1       8.346682        0.000000
    3 C2       2.245165        7.215450        0.000000
    4 C2       7.215450        2.245165        5.633610        0.000000
    5 H3       9.666335        1.997194        8.852725        4.242262        0.000000
    6 H3       1.997194        9.666335        4.242262        8.852725       10.716743        0.000000
    7 C4       4.954351        6.745323        2.709922        4.635351        8.673371        6.951524
    8 C4       6.745323        4.954351        4.635351        2.709922        6.951524        8.673371
    9 H5       6.102201        8.631269        4.038733        6.439052       10.595752        8.026667
   10 H5       8.631269        6.102201        6.439052        4.038733        8.026667       10.595752

               7 C4            8 C4            9 H5           10 H5    
    7 C4       0.000000
    8 C4       2.510434        0.000000
    9 H5       2.031725        3.916017        0.000000
   10 H5       3.916017        2.031725        4.464283        0.000000

                    ******************************************* 
                    *    InterNuclear Distances / Angstrom    * 
                    ******************************************* 

               1 C1            2 C1            3 C2            4 C2            5 H3            6 H3    
    1 C1       0.000000
    2 C1       4.416874        0.000000
    3 C2       1.188090        3.818252        0.000000
    4 C2       3.818252        1.188090        2.981178        0.000000
    5 H3       5.115204        1.056870        4.684660        2.244909        0.000000
    6 H3       1.056870        5.115204        2.244909        4.684660        5.671056        0.000000
    7 C4       2.621730        3.569471        1.434029        2.452922        4.589750        3.678588
    8 C4       3.569471        2.621730        2.452922        1.434029        3.678588        4.589750
    9 H5       3.229146        4.567471        2.137205        3.407400        5.607030        4.247529
   10 H5       4.567471        3.229146        3.407400        2.137205        4.247529        5.607030

               7 C4            8 C4            9 H5           10 H5    
    7 C4       0.000000
    8 C4       1.328464        0.000000
    9 H5       1.075143        2.072267        0.000000
   10 H5       2.072267        1.075143        2.362397        0.000000

                    ************************************** 
                    *    Valence Bond Angles / Degree    * 
                    ************************************** 
                          Atom centers                 Phi
                      3 C2       1 C1       6 H3       179.22
                      4 C2       2 C1       5 H3       179.22
                      1 C1       3 C2       7 C4       178.02
                      2 C1       4 C2       8 C4       178.02
                      3 C2       7 C4       8 C4       125.19
                      3 C2       7 C4       9 H5       116.07
                      8 C4       7 C4       9 H5       118.74
                      4 C2       8 C4       7 C4       125.19
                      4 C2       8 C4      10 H5       116.07
                      7 C4       8 C4      10 H5       118.74

           ***************************************************************
           *              Valence Dihedral Angles / Degree               *
           ***************************************************************
                    Atom centers                       Phi1     Phi2     Theta 
           6 H3       1 C1       3 C2       7 C4        179.22   178.02  -180.00
           5 H3       2 C1       4 C2       8 C4        179.22   178.02  -180.00
           1 C1       3 C2       7 C4       8 C4        178.02   125.19  -180.00
           1 C1       3 C2       7 C4       9 H5        178.02   116.07    -0.00
           2 C1       4 C2       8 C4       7 C4        178.02   125.19  -180.00
           2 C1       4 C2       8 C4      10 H5        178.02   116.07    -0.00
           3 C2       7 C4       8 C4       4 C2        125.19   125.19    -0.00
           3 C2       7 C4       8 C4      10 H5        125.19   118.74  -180.00
           9 H5       7 C4       8 C4      10 H5        118.74   118.74    -0.00
           4 C2       8 C4       7 C4       9 H5        125.19   118.74  -180.00
--


            Nuclear Potential Energy            166.86090531 au

--- Stop Module: gateway at Fri Jun 28 17:08:17 2024 /rc=_RC_ALL_IS_WELL_ ---
*** files: xmldump
    saved to directory /home/kenya/molcas_test/0625_re

--- Start Module: seward at Fri Jun 28 17:08:17 2024 ---

()()()()()()()()()()()()()()()()()()()()()()()()()()()()()()()()()()()()()()()()()()()()()()()()()()

                                              &SEWARD

                                   only a single process is used
                       available to each process: 2.0 GB of memory, 1 thread
                                            pid: 159828
()()()()()()()()()()()()()()()()()()()()()()()()()()()()()()()()()()()()()()()()()()()()()()()()()()

               SEWARD will generate:
                  Multipole Moment integrals up to order  2
                  Kinetic Energy integrals
                  Nuclear Attraction integrals (point charge)
                  One-Electron Hamiltonian integrals
                  Velocity integrals
                  Orbital angular momentum around ( 0.0000  0.0469  0.0000 )
                  Velocity quadrupole around ( 0.0000  0.0469  0.0000 )
                  Two-Electron Repulsion integrals

                   Integrals are discarded if absolute value <: 1.00E-14
                   Integral cutoff threshold is set to       <: 1.00E-16

                    Unitary symmetry adaptation


            Nuclear Potential Energy            166.86090531 au


      Basis set specifications :
      Symmetry species         a1   b1   a2   b2 
      Basis functions           37   37   12   12


      Input file to MOLDEN was generated!

--- Stop Module: seward at Fri Jun 28 17:08:20 2024 /rc=_RC_ALL_IS_WELL_ ---
*** files: reactant.GssOrb reactant.guessorb.molden xmldump
    saved to directory /home/kenya/molcas_test/0625_re
--- Module seward spent 2 seconds ---

--- Start Module: scf at Fri Jun 28 17:08:20 2024 ---

()()()()()()()()()()()()()()()()()()()()()()()()()()()()()()()()()()()()()()()()()()()()()()()()()()

                                                &SCF

                                   only a single process is used
                       available to each process: 2.0 GB of memory, 1 thread
                                            pid: 159870
()()()()()()()()()()()()()()()()()()()()()()()()()()()()()()()()()()()()()()()()()()()()()()()()()()

++    Input section:
      --------------

      Header of the integral files:
      
       Integrals generated by Gateway/Seward, Fri Jun 28 17:08:17 2024


      Cartesian coordinates in Angstrom:
      -----------------------------------------------------
      No.  Label        X            Y            Z        
      -----------------------------------------------------
       1   C1        -2.20843704   1.05104138   0.00000000
       2   C2        -1.49058899   0.10433511   0.00000000
       3   H3         2.83552802   1.90176482   0.00000000
       4   C4        -0.66423210  -1.06766039   0.00000000
       5   H5        -1.18119839  -2.01035733   0.00000000
       6   C1         2.20843704   1.05104138   0.00000000
       7   C2         1.49058899   0.10433511   0.00000000
       8   H3        -2.83552802   1.90176482   0.00000000
       9   C4         0.66423210  -1.06766039   0.00000000
      10   H5         1.18119839  -2.01035733   0.00000000
      -----------------------------------------------------
      Nuclear repulsion energy =  166.86090531
--

++    Orbital specifications:
      -----------------------

      Symmetry species               1   2   3   4
                                    a1  b1  a2  b2
      Frozen orbitals                0   0   0   0
      Aufbau                        20
      Start temperature = 0.500
      End temperature   = 0.010
      Temperature Factor= 0.460
      Deleted orbitals               0   0   0   0
      Total number of orbitals      37  37  12  12
      Number of basis functions     37  37  12  12
--

      Molecular charge                           0.000

++    Optimization specifications:
      ----------------------------

      SCF Algorithm: Conventional
      Minimized density differences are used
      Number of density matrices in core                 5
      Maximum number of NDDO SCF iterations            400
      Maximum number of HF SCF iterations              400
      Threshold for SCF energy change             1.00E-09
      Threshold for density matrix                1.00E-04
      Threshold for Fock matrix                   1.50E-04
      Threshold for linear dependence             1.00E-09
      Threshold at which DIIS is turned on        1.50E-01
      Maximum depth in the DIIS procedure                5
      Maximum depth in the BFGS Hessian update          30
      Threshold at which QNR/C2DIIS is turned on  7.50E-02
      Threshold for Norm(delta) (QNR/C2DIIS)      1.00E-03
      All orbitals punched on: SCFORB
--

      Detected guessorb starting orbitals                                             


++ Convergence information
                                   SCF        iterations: Energy and convergence statistics

Iter     Tot. SCF        One-elec.       Two-elec.     Energy      Max Dij or  Max Fij      DNorm      TNorm      AccCon     Time
         Energy          Energy          Energy        Change      Delta Norm                                                in Sec.
   1  -218.830408540  -631.525467820   245.834153971   0.00E+00    9.18E-02*   4.99E-01*    1.10E+01   2.36E+02   None         0.
   2  -224.933577536  -627.848588048   236.054105202  -6.10E+00*   8.79E-02*   6.43E-02*    6.85E+01   2.31E+02   EDIIS        0.
   3  -228.534564309  -641.636371734   246.240902114  -3.60E+00*   1.80E-01*   1.12E-01*    6.22E+00   2.36E+02   EDIIS        0.
   4  -229.260037042  -636.905570383   240.784628030  -7.25E-01*   2.60E-01*   1.94E-01*    1.93E+00   2.34E+02   EDIIS        0.
   5  -229.332923626  -639.990787255   243.796958318  -7.29E-02*   1.82E-01*   1.11E-01*    1.02E+00   2.35E+02   EDIIS        0.
   6  -229.363433128  -638.033611241   241.809272802  -3.05E-02*   5.85E-02*   7.24E-02*    3.58E-01   2.34E+02   EDIIS        0.
   7  -229.380380884  -638.954845726   242.713559532  -1.69E-02*   5.16E-02*   2.83E-02*    1.24E-01   2.35E+02   EDIIS        0.
   8  -229.380930074  -638.527063240   242.285227855  -5.49E-04*   8.04E-03*   1.77E-02*    2.60E-02   2.34E+02   EDIIS        0.

       Fermi aufbau procedure completed!
      nOcc=    9    8    1    2

   9  -229.382604667  -638.749135022   242.505625044  -1.67E-03*   5.85E-03*   2.43E-03*    3.89E-03   2.35E+02   EDIIS        0.
  10  -229.382613959  -638.714193709   242.470674440  -9.29E-06*   2.32E-03*   2.92E-03*    1.14E-03   2.35E+02   EDIIS        0.
  11  -229.382623462  -638.736553997   242.493025225  -9.50E-06*   1.79E-03*   4.57E-04*    1.62E-04   2.35E+02   EDIIS        0.
  12  -229.382624178  -638.724790713   242.481261224  -7.16E-07*   5.31E-04*   2.08E-04*    1.23E-04   2.35E+02   EDIIS        0.
  13  -229.382625360  -638.731501004   242.487970335  -1.18E-06*   2.14E-04*   7.49E-05     1.94E-05   2.35E+02   c2DIIS       0.
  14  -229.382625443  -638.730212232   242.486681479  -8.39E-08*   5.93E-05    2.00E-05     3.31E-04   2.35E+02   QNRc2DIIS    0.
  15  -229.382625450  -638.730334864   242.486804104  -6.25E-09*   5.77E-05    1.31E-05     2.41E-02   2.35E+02   QNRc2DIIS    0.
  16  -229.382625451  -638.730196451   242.486665689  -1.32E-09*   1.27E-05    5.06E-06     2.55E-03   2.35E+02   QNRc2DIIS    0.
  17  -229.382625451  -638.730273052   242.486742290  -2.98E-10    6.06E-06    6.19E-07     9.12E-03   2.35E+02   QNRc2DIIS    0.

       Convergence after  17 Macro Iterations
--

 *****************************************************************************************************************************
 *                                                                                                                           *
 *                                             SCF/KS-DFT Program, Final results                                             *
 *                                                                                                                           *
 *                                                                                                                           *
 *                                                                                                                           *
 *                                                       Final Results                                                       *
 *                                                                                                                           *
 *****************************************************************************************************************************

::    Total SCF energy                               -229.3826254513
      One-electron energy                            -638.7302730520
      Two-electron energy                             242.4867422905
      Nuclear repulsion energy                        166.8609053102
      Kinetic energy (interpolated)                   229.1406596583
      Virial theorem                                    1.0010559706
      Total spin, S(S+1)                                0.0000000000
      Total spin, S                                     0.0000000000
      Max non-diagonal density matrix element           0.0000056930
      Max non-diagonal Fock matrix element              0.0000011785


      All orbitals with orbital energies smaller than  E(LUMO)+0.5 are printed

++    Molecular orbitals:
      -------------------

      Title: SCF orbitals

      Molecular orbitals for symmetry species 1: a1 

          Orbital            1         2         3         4         5         6         7         8         9        10    
          Energy          -11.2708  -11.2364  -11.2298   -1.1161   -0.9987   -0.7503   -0.6829   -0.6484   -0.4000    0.1933
          Occ. No.          2.0000    2.0000    2.0000    2.0000    2.0000    2.0000    2.0000    2.0000    2.0000    0.0000

        1 C1     1s         0.0003    0.3232   -0.9416   -0.0615    0.1675   -0.0958   -0.0129   -0.0101    0.0038    0.0060
        2 C1     2s         0.0003    0.0077   -0.0261    0.1083   -0.3075    0.1948    0.0416    0.0097   -0.0095   -0.0316
        3 C1     *s        -0.0045    0.0008    0.0146    0.1512   -0.2593    0.1325   -0.1076    0.1078    0.0212    0.1935
        4 C1     2px        0.0001   -0.0004   -0.0002    0.0403   -0.0848   -0.1298   -0.1797    0.1458    0.3064   -0.2483
        5 C1     *px       -0.0020    0.0008    0.0027    0.0279    0.0011   -0.0807   -0.1104    0.0912    0.2260   -0.4111
        6 C1     2py       -0.0001    0.0004    0.0002   -0.0505    0.1136    0.1676    0.2837   -0.1008    0.2413   -0.1619
        7 C1     *py        0.0026   -0.0014   -0.0037   -0.0361   -0.0039    0.0995    0.1699   -0.0715    0.1477   -0.4559
        8 C1     *200       0.0001   -0.0005    0.0012    0.0003   -0.0012    0.0035    0.0053    0.0018    0.0120    0.0118
        9 C1     *110      -0.0001   -0.0005    0.0010   -0.0055    0.0231   -0.0229   -0.0108    0.0006   -0.0070   -0.0068
       10 C1     *020       0.0000   -0.0003    0.0009    0.0015   -0.0080    0.0111    0.0052   -0.0062   -0.0119   -0.0127
       11 C1     *002       0.0000   -0.0007    0.0015   -0.0020    0.0076   -0.0047    0.0001   -0.0009   -0.0003   -0.0018
       12 C2     1s         0.0118    0.9410    0.3246   -0.1202    0.1255    0.0981    0.0156    0.0153   -0.0027   -0.0028
       13 C2     2s         0.0002    0.0252    0.0100    0.2294   -0.2232   -0.2033   -0.0219   -0.0361    0.0022   -0.0343
       14 C2     *s         0.0073   -0.0077   -0.0120    0.0845   -0.1831   -0.0968    0.1057   -0.1184    0.0086    0.1046
       15 C2     2px       -0.0000    0.0000   -0.0003    0.0336    0.1380   -0.0944    0.2155   -0.0358    0.3079    0.2209
       16 C2     *px       -0.0013   -0.0000    0.0031    0.0502   -0.0082   -0.0502   -0.0513    0.0638    0.2325    0.5544
       17 C2     2py        0.0001   -0.0003    0.0003   -0.0350   -0.1765    0.1138   -0.1943    0.2431    0.2164    0.1569
       18 C2     *py        0.0017    0.0007   -0.0038   -0.0643    0.0197    0.0703    0.0962   -0.0198    0.1271    0.0591
       19 C2     *200      -0.0002   -0.0011   -0.0004    0.0027    0.0020   -0.0018    0.0026    0.0040   -0.0143    0.0161
       20 C2     *110       0.0003   -0.0015   -0.0001   -0.0200    0.0060    0.0175   -0.0003   -0.0021    0.0098   -0.0021
       21 C2     *020      -0.0005   -0.0006   -0.0003    0.0076   -0.0003   -0.0071   -0.0006   -0.0048    0.0133   -0.0176
       22 C2     *002      -0.0001   -0.0017   -0.0004   -0.0054    0.0043    0.0046    0.0016    0.0002   -0.0003   -0.0027
       23 H3     1s        -0.0002   -0.0004    0.0009    0.0205   -0.0732    0.2077    0.2015   -0.0865    0.0032   -0.0001
       24 H3     *s        -0.0010    0.0009   -0.0007    0.0098   -0.0006    0.0909    0.1015   -0.0446    0.0095    0.0516
       25 C4     1s         0.9952   -0.0117   -0.0037   -0.1923   -0.1040   -0.0301   -0.0025   -0.0142    0.0173    0.0635
       26 C4     2s         0.0273   -0.0003   -0.0002    0.3727    0.1974    0.0582    0.0023    0.0350   -0.0394   -0.1029
       27 C4     *s        -0.0072    0.0026   -0.0000    0.2157    0.1999    0.0688    0.0797   -0.0798   -0.0569   -1.0348
       28 C4     2px       -0.0005    0.0005    0.0001    0.0930    0.1168    0.1853    0.0392    0.5256   -0.1441    0.0131
       29 C4     *px        0.0011   -0.0007   -0.0002    0.0125    0.0034    0.0416    0.0018    0.1989   -0.0609    0.3624
       30 C4     2py        0.0005   -0.0007   -0.0001    0.0421   -0.0504   -0.2737    0.3299    0.0862   -0.0701    0.0866
       31 C4     *py       -0.0002    0.0008    0.0001   -0.0155    0.0023   -0.0920    0.1672    0.0208   -0.0522    0.2308
       32 C4     *200      -0.0010   -0.0003   -0.0000    0.0108    0.0062    0.0049    0.0002    0.0071   -0.0095   -0.0148
       33 C4     *110      -0.0001    0.0005    0.0001   -0.0000    0.0068    0.0115   -0.0106    0.0025    0.0087    0.0248
       34 C4     *020      -0.0012   -0.0005   -0.0001    0.0033   -0.0018   -0.0027   -0.0027   -0.0167    0.0130    0.0189
       35 C4     *002      -0.0015   -0.0001   -0.0000   -0.0090   -0.0050   -0.0005   -0.0005    0.0012   -0.0004   -0.0003
       36 H5     1s        -0.0001   -0.0001   -0.0001    0.0915    0.0653    0.1043   -0.1717   -0.1779    0.0953    0.1040
       37 H5     *s         0.0019    0.0002    0.0001    0.0053    0.0164    0.0510   -0.0949   -0.1253    0.1068    1.1102

          Orbital           11        12        13        14    
          Energy            0.2705    0.2981    0.4179    0.5894
          Occ. No.          0.0000    0.0000    0.0000    0.0000

        1 C1     1s        -0.0950   -0.0020   -0.0384    0.0580
        2 C1     2s         0.1846   -0.0041    0.2072   -0.2823
        3 C1     *s        -1.0146    0.1690   -1.1939   -5.2597
        4 C1     2px       -0.1207   -0.1444    0.1464   -0.1123
        5 C1     *px       -1.8199   -0.4590   -0.1616   -2.0398
        6 C1     2py        0.1663   -0.0882   -0.1944    0.1235
        7 C1     *py        2.4204   -0.3426   -0.0784    2.5593
        8 C1     *200      -0.0032    0.0107    0.0101   -0.0105
        9 C1     *110       0.0247   -0.0067    0.0003   -0.0060
       10 C1     *020      -0.0103   -0.0105   -0.0032   -0.0080
       11 C1     *002       0.0062   -0.0000    0.0058   -0.0142
       12 C2     1s         0.0473   -0.0081    0.1201   -0.0479
       13 C2     2s        -0.1599    0.0117   -0.0254   -0.5891
       14 C2     *s         2.2179    0.0592   -2.2052    3.6628
       15 C2     2px        0.0513    0.1700   -0.0895   -0.1025
       16 C2     *px       -1.4244    0.6905   -1.0289   -2.9862
       17 C2     2py       -0.0547    0.0955    0.3153    0.0682
       18 C2     *py        1.9025    0.3440    1.6963    4.3933
       19 C2     *200       0.0011    0.0021    0.0078   -0.0360
       20 C2     *110      -0.0192   -0.0005   -0.0278    0.0714
       21 C2     *020       0.0069   -0.0041    0.0134   -0.0626
       22 C2     *002      -0.0062    0.0014   -0.0032   -0.0215
       23 H3     1s        -0.0734   -0.0025   -0.0448    0.0084
       24 H3     *s        -2.9748   -0.0867    0.4717   -0.9890
       25 C4     1s        -0.0187   -0.0515   -0.0930   -0.0159
       26 C4     2s         0.0016    0.0070    0.1027   -0.3550
       27 C4     *s         1.1385    1.2566    2.5724    3.6030
       28 C4     2px       -0.0533   -0.2130   -0.1745    0.3553
       29 C4     *px       -0.3302   -0.5628   -1.2225   -1.7090
       30 C4     2py        0.0750   -0.2733    0.2508   -0.3647
       31 C4     *py        0.5449   -0.8872    1.3120    1.6549
       32 C4     *200       0.0001   -0.0120    0.0046    0.0067
       33 C4     *110       0.0058   -0.0049    0.0585    0.0056
       34 C4     *020       0.0002    0.0095   -0.0045   -0.0255
       35 C4     *002      -0.0018   -0.0045    0.0026   -0.0137
       36 H5     1s         0.0033    0.0419    0.1197    0.0290
       37 H5     *s         0.1471   -1.9058    0.0394    0.0015

      Molecular orbitals for symmetry species 2: b1 

          Orbital            1         2         3         4         5         6         7         8         9        10    
          Energy          -11.2691  -11.2364  -11.2298   -1.0376   -0.8662   -0.7089   -0.5722   -0.3932    0.2385    0.2706
          Occ. No.          2.0000    2.0000    2.0000    2.0000    2.0000    2.0000    2.0000    2.0000    0.0000    0.0000

        1 C1     1s         0.0005    0.3226   -0.9417   -0.1579    0.1102    0.0604   -0.0280    0.0025   -0.0091   -0.0906
        2 C1     2s         0.0004    0.0076   -0.0261    0.2863   -0.2088   -0.1385    0.0461   -0.0077    0.0246    0.1840
        3 C1     *s         0.0006    0.0002    0.0131    0.3461   -0.1955    0.1251    0.2070   -0.0589    0.2605   -1.7015
        4 C1     2px        0.0002   -0.0004   -0.0002    0.0879   -0.0214    0.2496    0.0604   -0.3337   -0.2512   -0.1175
        5 C1     *px       -0.0004    0.0010    0.0024    0.0368    0.0079    0.1837    0.0606   -0.2433   -0.6287   -2.0255
        6 C1     2py       -0.0003    0.0005    0.0003   -0.1198    0.0140   -0.3245   -0.1380   -0.2367   -0.1920    0.1863
        7 C1     *py        0.0004   -0.0011   -0.0031   -0.0528   -0.0197   -0.2385   -0.1177   -0.1418   -0.4729    2.7877
        8 C1     *200       0.0000   -0.0005    0.0012    0.0007   -0.0025   -0.0048   -0.0032   -0.0128    0.0181   -0.0044
        9 C1     *110      -0.0001   -0.0005    0.0010   -0.0195    0.0204    0.0203   -0.0005    0.0072   -0.0083    0.0270
       10 C1     *020       0.0001   -0.0004    0.0009    0.0070   -0.0067   -0.0121    0.0012    0.0127   -0.0191   -0.0099
       11 C1     *002      -0.0000   -0.0007    0.0015   -0.0064    0.0059    0.0023   -0.0020   -0.0004    0.0018    0.0066
       12 C2     1s         0.0127    0.9412    0.3241   -0.1801   -0.0358   -0.0753    0.0565   -0.0017   -0.0007    0.0406
       13 C2     2s         0.0005    0.0255    0.0101    0.3307    0.0876    0.1443   -0.1261   -0.0025    0.0290   -0.1382
       14 C2     *s         0.0069   -0.0094   -0.0125    0.2005    0.0400   -0.0409   -0.1755    0.0218    0.1094    2.4350
       15 C2     2px       -0.0000    0.0003   -0.0002   -0.0726    0.1603   -0.0863   -0.2330   -0.3105    0.3250    0.0466
       16 C2     *px        0.0029   -0.0015    0.0016    0.0952    0.0138    0.1610    0.0564   -0.2427    0.7343   -1.9448
       17 C2     2py        0.0001   -0.0003    0.0003    0.0809   -0.2571    0.1378    0.2062   -0.2587    0.2254   -0.0950
       18 C2     *py       -0.0029    0.0016   -0.0022   -0.1258   -0.0149   -0.2093   -0.0951   -0.1000    0.2243    2.4786
       19 C2     *200      -0.0003   -0.0009   -0.0003   -0.0005    0.0020    0.0006   -0.0019    0.0134    0.0156    0.0007
       20 C2     *110       0.0004   -0.0016   -0.0001   -0.0193   -0.0147   -0.0119    0.0084   -0.0050   -0.0203   -0.0160
       21 C2     *020      -0.0005   -0.0005   -0.0003    0.0061    0.0096    0.0023   -0.0015   -0.0143   -0.0117    0.0074
       22 C2     *002      -0.0001   -0.0015   -0.0003   -0.0075   -0.0022   -0.0044    0.0008   -0.0008    0.0023   -0.0048
       23 H3     1s         0.0001    0.0004   -0.0009   -0.0621    0.0876    0.2859    0.0583   -0.0008    0.0074    0.0727
       24 H3     *s         0.0003   -0.0009    0.0008   -0.0139    0.0225    0.1224    0.0281    0.0046    0.1138    3.1094
       25 C4     1s         0.9959   -0.0126   -0.0039   -0.0577   -0.1463    0.0451   -0.0224    0.0204   -0.0348   -0.0266
       26 C4     2s         0.0283    0.0000   -0.0002    0.1183    0.2907   -0.0832    0.0498   -0.0426    0.0771   -0.0034
       27 C4     *s        -0.0212    0.0028    0.0011   -0.0236    0.2818   -0.2557   -0.0767   -0.0760    0.5108    1.7294
       28 C4     2px       -0.0001    0.0003    0.0001   -0.0833   -0.2047    0.0620   -0.0305   -0.0099    0.0961   -0.0345
       29 C4     *px       -0.0021   -0.0023   -0.0011    0.0191   -0.0919    0.0828   -0.0065   -0.0525    0.6106   -0.4925
       30 C4     2py        0.0006   -0.0005   -0.0000    0.0490    0.0323    0.0617   -0.4179    0.0415    0.0379    0.0360
       31 C4     *py       -0.0050    0.0011    0.0013   -0.0646   -0.0000   -0.0639   -0.3377    0.0842   -0.2117    0.9846
       32 C4     *200      -0.0006   -0.0006   -0.0001    0.0009   -0.0008   -0.0009    0.0004    0.0093   -0.0211    0.0055
       33 C4     *110      -0.0003    0.0007    0.0001   -0.0070   -0.0010   -0.0064    0.0466   -0.0116    0.0091   -0.0043
       34 C4     *020      -0.0008   -0.0006   -0.0001    0.0062    0.0125   -0.0057    0.0045   -0.0086    0.0187    0.0023
       35 C4     *002      -0.0013   -0.0001   -0.0000   -0.0028   -0.0074    0.0024   -0.0006    0.0004    0.0019   -0.0032
       36 H5     1s        -0.0002   -0.0002   -0.0000    0.0383    0.1484   -0.0897    0.2808   -0.0646    0.0705   -0.0163
       37 H5     *s         0.0009   -0.0004    0.0001   -0.0015    0.0451   -0.0572    0.1774   -0.0513    0.1610   -0.0114

          Orbital           11        12    
          Energy            0.3143    0.5676
          Occ. No.          0.0000    0.0000

        1 C1     1s         0.0167   -0.0700
        2 C1     2s        -0.0397    0.2625
        3 C1     *s        -2.1297    1.8105
        4 C1     2px       -0.0452    0.0774
        5 C1     *px       -0.7860    1.3376
        6 C1     2py        0.0788   -0.2638
        7 C1     *py        1.2021   -1.0255
        8 C1     *200       0.0006   -0.0091
        9 C1     *110       0.0013    0.0196
       10 C1     *020      -0.0038    0.0160
       11 C1     *002      -0.0012    0.0105
       12 C2     1s        -0.0355    0.1140
       13 C2     2s         0.0186    0.1417
       14 C2     *s         0.7623   -3.6434
       15 C2     2px        0.1076   -0.2483
       16 C2     *px       -1.7240    0.0974
       17 C2     2py       -0.0643   -0.0275
       18 C2     *py        1.8267   -1.1144
       19 C2     *200      -0.0046    0.0192
       20 C2     *110       0.0213   -0.0601
       21 C2     *020      -0.0086    0.0214
       22 C2     *002      -0.0011   -0.0045
       23 H3     1s        -0.0038    0.0988
       24 H3     *s         0.5878   -0.8105
       25 C4     1s         0.1106   -0.1195
       26 C4     2s        -0.2391    0.2469
       27 C4     *s        -0.5058    2.5795
       28 C4     2px        0.1187   -0.0434
       29 C4     *px       -0.1561    2.3046
       30 C4     2py        0.1548    0.4089
       31 C4     *py        2.8629    1.5655
       32 C4     *200       0.0071    0.0129
       33 C4     *110      -0.0183   -0.0178
       34 C4     *020       0.0049   -0.0007
       35 C4     *002      -0.0050    0.0110
       36 H5     1s         0.0080   -0.0698
       37 H5     *s         2.8309    1.4734

      Molecular orbitals for symmetry species 3: a2 

          Orbital            1         2         3    
          Energy           -0.4159    0.0956    0.3589
          Occ. No.          2.0000    0.0000    0.0000

        1 C1     2pz        0.3763   -0.2972    0.1744
        2 C1     *pz        0.2501   -0.4630    0.8191
        3 C1     *101       0.0158    0.0074   -0.0291
        4 C1     *011      -0.0214   -0.0102    0.0378
        5 C2     2pz        0.4116    0.1484   -0.4128
        6 C2     *pz        0.2569    0.2322   -0.9957
        7 C2     *101      -0.0134    0.0234   -0.0002
        8 C2     *011       0.0146   -0.0394   -0.0064
        9 C4     2pz        0.1040    0.4139    0.3559
       10 C4     *pz        0.0741    0.6542    1.0665
       11 C4     *101      -0.0134   -0.0335   -0.0142
       12 C4     *011       0.0119    0.0079   -0.0269

      Molecular orbitals for symmetry species 4: b2 

          Orbital            1         2         3    
          Energy           -0.4892   -0.3267    0.2583
          Occ. No.          2.0000    2.0000    0.0000

        1 C1     2pz        0.2183   -0.3545   -0.3055
        2 C1     *pz        0.1299   -0.2710   -0.8642
        3 C1     *101       0.0116   -0.0103    0.0234
        4 C1     *011      -0.0154    0.0133   -0.0304
        5 C2     2pz        0.3083   -0.2513    0.3814
        6 C2     *pz        0.1698   -0.1984    0.9221
        7 C2     *101       0.0006    0.0237    0.0153
        8 C2     *011      -0.0002   -0.0291   -0.0184
        9 C4     2pz        0.3888    0.3750   -0.1530
       10 C4     *pz        0.2568    0.3292   -0.3042
       11 C4     *101       0.0174    0.0308   -0.0314
       12 C4     *011       0.0111   -0.0068    0.0357
--


++    Molecular charges:
      ------------------

      Mulliken charges per centre and basis function type
      ---------------------------------------------------

                C1      C2      H3      C4      H5    
      1s       1.9965  1.9966  0.5011  1.9966  0.5247
      2s       0.6686  0.6748  0.0000  0.6683  0.0000
      2px      0.6551  0.6548  0.0000  0.7576  0.0000
      2pz      0.5594  0.5817  0.0000  0.5357  0.0000
      2py      0.7208  0.7219  0.0000  0.7087  0.0000
      *s       0.5446  0.3893  0.2013  0.4641  0.2436
      *px      0.4587  0.2799  0.0000  0.2018  0.0000
      *110     0.0115  0.0101  0.0000  0.0191  0.0000
      *020     0.0367  0.0285  0.0000  0.0249  0.0000
      *002    -0.0192 -0.0180  0.0000 -0.0193  0.0000
      *200     0.0117  0.0077  0.0000  0.0242  0.0000
      *pz      0.4269  0.4026  0.0000  0.4583  0.0000
      *py      0.4257  0.1043  0.0000  0.3226  0.0000
      *101     0.0036  0.0055  0.0000  0.0093  0.0000
      *011     0.0063  0.0085  0.0000  0.0023  0.0000
      Total    6.5070  5.8480  0.7024  6.1743  0.7683

      N-E     -0.5070  0.1520  0.2976 -0.1743  0.2317

      Total electronic charge=   40.000000

      Total            charge=   -0.000000
--


++    Molecular properties:
      ---------------------

      Charge (e):
                      =   -0.0000
      Dipole Moment (Debye):
      Origin of the operator (Ang)=    0.0000    0.0000    0.0000
                   X=  0.0000E+00               Y= -1.8429E-01               Z=  0.0000E+00           Total=  1.8429E-01
      Quadrupole Moment (Debye*Ang):
      Origin of the operator (Ang)=    0.0000    0.0248    0.0000
                  XX= -3.0119E+01              XY=  0.0000E+00              XZ=  0.0000E+00              YY= -2.6425E+01
                  YZ=  0.0000E+00              ZZ= -3.7591E+01
      In traceless form (Debye*Ang)
                  XX=  1.8887E+00              XY=  0.0000E+00              XZ=  0.0000E+00              YY=  7.4301E+00
                  YZ=  0.0000E+00              ZZ= -9.3188E+00
--


      Input file to MOLDEN was generated!

 ###############################################################################
 ###############################################################################
 ###                                                                         ###
 ###                                                                         ###
 ###    WARNING: RunFile label nBas                                          ###
 ###    was used       59 times                                              ###
 ###                                                                         ###
 ###                                                                         ###
 ###############################################################################
 ###############################################################################
--- Stop Module: scf at Fri Jun 28 17:08:22 2024 /rc=_RC_ALL_IS_WELL_ ---
*** files: reactant.scf.molden reactant.ScfOrb xmldump
    saved to directory /home/kenya/molcas_test/0625_re
--- Module scf spent 2 seconds ---

.##################.
.# Happy landing! #.
.##################.

    Timing: Wall=5.53 User=4.72 System=0.64
