[Molden Format]
[N_Atoms]
                   10
[Atoms] (AU)
C1          1      6          -4.17334117      1.98618035      0.00000000
C1          2      6           4.17334117      1.98618035      0.00000000
C2          3      6          -2.81680496      0.19716478      0.00000000
C2          4      6           2.81680496      0.19716478      0.00000000
H3          5      1           5.35837138      3.59381466      0.00000000
H3          6      1          -5.35837138      3.59381466      0.00000000
C4          7      6          -1.25521675     -2.01758573      0.00000000
C4          8      6           1.25521675     -2.01758573      0.00000000
H5          9      1          -2.23214146     -3.79902477      0.00000000
H5         10      1           2.23214146     -3.79902477      0.00000000
[Charge] (Mulliken)
   0.0000000000000000     
   0.0000000000000000     
   0.0000000000000000     
   0.0000000000000000     
   0.0000000000000000     
   0.0000000000000000     
   0.0000000000000000     
   0.0000000000000000     
   0.0000000000000000     
   0.0000000000000000     
[GTO] (AU)
   1
   s   6
  3.047524880E+03  1.834737132E-03
  4.573695180E+02  1.403732281E-02
  1.039486850E+02  6.884262227E-02
  2.921015530E+01  2.321844432E-01
  9.286662960E+00  4.679413484E-01
  3.163926960E+00  3.623119853E-01
   s   3
  7.868272350E+00 -1.193324198E-01
  1.881288540E+00 -1.608541517E-01
  5.442492580E-01  1.143456438E+00
   s   1
  1.687144782E-01  1.000000000E+00
   p   3
  7.868272350E+00  6.899906659E-02
  1.881288540E+00  3.164239610E-01
  5.442492580E-01  7.443082909E-01
   p   1
  1.687144782E-01  1.000000000E+00
   d   1
  8.000000000E-01  1.000000000E+00
 
   2
   s   6
  3.047524880E+03  1.834737132E-03
  4.573695180E+02  1.403732281E-02
  1.039486850E+02  6.884262227E-02
  2.921015530E+01  2.321844432E-01
  9.286662960E+00  4.679413484E-01
  3.163926960E+00  3.623119853E-01
   s   3
  7.868272350E+00 -1.193324198E-01
  1.881288540E+00 -1.608541517E-01
  5.442492580E-01  1.143456438E+00
   s   1
  1.687144782E-01  1.000000000E+00
   p   3
  7.868272350E+00  6.899906659E-02
  1.881288540E+00  3.164239610E-01
  5.442492580E-01  7.443082909E-01
   p   1
  1.687144782E-01  1.000000000E+00
   d   1
  8.000000000E-01  1.000000000E+00
 
   3
   s   6
  3.047524880E+03  1.834737132E-03
  4.573695180E+02  1.403732281E-02
  1.039486850E+02  6.884262227E-02
  2.921015530E+01  2.321844432E-01
  9.286662960E+00  4.679413484E-01
  3.163926960E+00  3.623119853E-01
   s   3
  7.868272350E+00 -1.193324198E-01
  1.881288540E+00 -1.608541517E-01
  5.442492580E-01  1.143456438E+00
   s   1
  1.687144782E-01  1.000000000E+00
   p   3
  7.868272350E+00  6.899906659E-02
  1.881288540E+00  3.164239610E-01
  5.442492580E-01  7.443082909E-01
   p   1
  1.687144782E-01  1.000000000E+00
   d   1
  8.000000000E-01  1.000000000E+00
 
   4
   s   6
  3.047524880E+03  1.834737132E-03
  4.573695180E+02  1.403732281E-02
  1.039486850E+02  6.884262227E-02
  2.921015530E+01  2.321844432E-01
  9.286662960E+00  4.679413484E-01
  3.163926960E+00  3.623119853E-01
   s   3
  7.868272350E+00 -1.193324198E-01
  1.881288540E+00 -1.608541517E-01
  5.442492580E-01  1.143456438E+00
   s   1
  1.687144782E-01  1.000000000E+00
   p   3
  7.868272350E+00  6.899906659E-02
  1.881288540E+00  3.164239610E-01
  5.442492580E-01  7.443082909E-01
   p   1
  1.687144782E-01  1.000000000E+00
   d   1
  8.000000000E-01  1.000000000E+00
 
   5
   s   3
  1.873113696E+01  3.349460434E-02
  2.825394365E+00  2.347269535E-01
  6.401216923E-01  8.137573261E-01
   s   1
  1.612777588E-01  1.000000000E+00
 
   6
   s   3
  1.873113696E+01  3.349460434E-02
  2.825394365E+00  2.347269535E-01
  6.401216923E-01  8.137573261E-01
   s   1
  1.612777588E-01  1.000000000E+00
 
   7
   s   6
  3.047524880E+03  1.834737132E-03
  4.573695180E+02  1.403732281E-02
  1.039486850E+02  6.884262227E-02
  2.921015530E+01  2.321844432E-01
  9.286662960E+00  4.679413484E-01
  3.163926960E+00  3.623119853E-01
   s   3
  7.868272350E+00 -1.193324198E-01
  1.881288540E+00 -1.608541517E-01
  5.442492580E-01  1.143456438E+00
   s   1
  1.687144782E-01  1.000000000E+00
   p   3
  7.868272350E+00  6.899906659E-02
  1.881288540E+00  3.164239610E-01
  5.442492580E-01  7.443082909E-01
   p   1
  1.687144782E-01  1.000000000E+00
   d   1
  8.000000000E-01  1.000000000E+00
 
   8
   s   6
  3.047524880E+03  1.834737132E-03
  4.573695180E+02  1.403732281E-02
  1.039486850E+02  6.884262227E-02
  2.921015530E+01  2.321844432E-01
  9.286662960E+00  4.679413484E-01
  3.163926960E+00  3.623119853E-01
   s   3
  7.868272350E+00 -1.193324198E-01
  1.881288540E+00 -1.608541517E-01
  5.442492580E-01  1.143456438E+00
   s   1
  1.687144782E-01  1.000000000E+00
   p   3
  7.868272350E+00  6.899906659E-02
  1.881288540E+00  3.164239610E-01
  5.442492580E-01  7.443082909E-01
   p   1
  1.687144782E-01  1.000000000E+00
   d   1
  8.000000000E-01  1.000000000E+00
 
   9
   s   3
  1.873113696E+01  3.349460434E-02
  2.825394365E+00  2.347269535E-01
  6.401216923E-01  8.137573261E-01
   s   1
  1.612777588E-01  1.000000000E+00
 
  10
   s   3
  1.873113696E+01  3.349460434E-02
  2.825394365E+00  2.347269535E-01
  6.401216923E-01  8.137573261E-01
   s   1
  1.612777588E-01  1.000000000E+00
 
[MO]
Sym=     1a1 
Ene=   -11.3600
Spin= Alpha
Occup=    2.00000
   1         0.42965903
   2         0.00921651
   3         0.00106431
   4         0.00108585
   5        -0.00142541
   6         0.00000000
   7         0.00067811
   8        -0.00089017
   9         0.00000000
  10         0.00000000
  11         0.00000000
  12         0.00000000
  13         0.00000000
  14         0.00000000
  15         0.00000000
  16         0.42965903
  17         0.00921651
  18         0.00106431
  19        -0.00108585
  20        -0.00142541
  21         0.00000000
  22        -0.00067811
  23        -0.00089017
  24         0.00000000
  25         0.00000000
  26         0.00000000
  27         0.00000000
  28        -0.00000000
  29         0.00000000
  30         0.00000000
  31         0.50195724
  32         0.01077058
  33         0.00124699
  34        -0.00048269
  35         0.00072142
  36         0.00000000
  37        -0.00030144
  38         0.00045053
  39         0.00000000
  40        -0.00000000
  41         0.00000000
  42        -0.00000000
  43         0.00000000
  44         0.00000000
  45         0.00000000
  46         0.50195724
  47         0.01077058
  48         0.00124699
  49         0.00048269
  50         0.00072142
  51         0.00000000
  52         0.00030144
  53         0.00045053
  54         0.00000000
  55        -0.00000000
  56         0.00000000
  57        -0.00000000
  58        -0.00000000
  59         0.00000000
  60         0.00000000
  61         0.00095073
  62         0.00106153
  63         0.00095073
  64         0.00106153
  65         0.23616055
  66         0.00567403
  67         0.00126215
  68         0.00008921
  69         0.00105688
  70         0.00000000
  71         0.00005571
  72         0.00066002
  73         0.00000000
  74        -0.00000000
  75         0.00000000
  76        -0.00000000
  77        -0.00000000
  78         0.00000000
  79         0.00000000
  80         0.23616055
  81         0.00567403
  82         0.00126215
  83        -0.00008921
  84         0.00105688
  85         0.00000000
  86        -0.00005571
  87         0.00066002
  88         0.00000000
  89        -0.00000000
  90         0.00000000
  91        -0.00000000
  92         0.00000000
  93         0.00000000
  94         0.00000000
  95         0.00066260
  96         0.00073983
  97         0.00066260
  98         0.00073983
Sym=     2a1 
Ene=   -11.3520
Spin= Alpha
Occup=    2.00000
   1        -0.27263539
   2        -0.00516902
   3         0.00008086
   4        -0.00006348
   5         0.00008686
   6         0.00000000
   7        -0.00003964
   8         0.00005424
   9         0.00000000
  10        -0.00000000
  11        -0.00000000
  12        -0.00000000
  13        -0.00000000
  14         0.00000000
  15         0.00000000
  16        -0.27263539
  17        -0.00516902
  18         0.00008086
  19         0.00006348
  20         0.00008686
  21         0.00000000
  22         0.00003964
  23         0.00005424
  24         0.00000000
  25        -0.00000000
  26        -0.00000000
  27        -0.00000000
  28         0.00000000
  29         0.00000000
  30         0.00000000
  31        -0.07017371
  32        -0.00091549
  33         0.00048282
  34         0.00156801
  35        -0.00200368
  36         0.00000000
  37         0.00097922
  38        -0.00125129
  39         0.00000000
  40         0.00000000
  41         0.00000000
  42         0.00000000
  43         0.00000000
  44         0.00000000
  45         0.00000000
  46        -0.07017371
  47        -0.00091549
  48         0.00048282
  49        -0.00156801
  50        -0.00200368
  51         0.00000000
  52        -0.00097922
  53        -0.00125129
  54         0.00000000
  55         0.00000000
  56         0.00000000
  57         0.00000000
  58        -0.00000000
  59         0.00000000
  60         0.00000000
  61        -0.00056379
  62        -0.00062950
  63        -0.00056379
  64        -0.00062950
  65         0.64353772
  66         0.01301362
  67         0.00071372
  68         0.00183746
  69        -0.00018040
  70         0.00000000
  71         0.00114749
  72        -0.00011266
  73         0.00000000
  74        -0.00000000
  75        -0.00000000
  76        -0.00000000
  77         0.00000000
  78         0.00000000
  79         0.00000000
  80         0.64353772
  81         0.01301362
  82         0.00071372
  83        -0.00183746
  84        -0.00018040
  85         0.00000000
  86        -0.00114749
  87        -0.00011266
  88         0.00000000
  89        -0.00000000
  90        -0.00000000
  91        -0.00000000
  92        -0.00000000
  93         0.00000000
  94         0.00000000
  95         0.00143731
  96         0.00160484
  97         0.00143731
  98         0.00160484
Sym=     3a1 
Ene=   -11.3240
Spin= Alpha
Occup=    2.00000
   1        -0.48552222
   2        -0.00779502
   3         0.00171409
   4         0.00097832
   5        -0.00128856
   6         0.00000000
   7         0.00061096
   8        -0.00080471
   9         0.00000000
  10         0.00000000
  11        -0.00000000
  12         0.00000000
  13         0.00000000
  14         0.00000000
  15         0.00000000
  16        -0.48552222
  17        -0.00779502
  18         0.00171409
  19        -0.00097832
  20        -0.00128856
  21         0.00000000
  22        -0.00061096
  23        -0.00080471
  24         0.00000000
  25         0.00000000
  26        -0.00000000
  27         0.00000000
  28        -0.00000000
  29         0.00000000
  30         0.00000000
  31         0.48751488
  32         0.00760102
  33        -0.00197273
  34         0.00079326
  35        -0.00101498
  36         0.00000000
  37         0.00049539
  38        -0.00063385
  39         0.00000000
  40         0.00000000
  41         0.00000000
  42         0.00000000
  43        -0.00000000
  44         0.00000000
  45         0.00000000
  46         0.48751488
  47         0.00760102
  48        -0.00197273
  49        -0.00079326
  50        -0.00101498
  51         0.00000000
  52        -0.00049539
  53        -0.00063385
  54         0.00000000
  55         0.00000000
  56         0.00000000
  57         0.00000000
  58         0.00000000
  59         0.00000000
  60         0.00000000
  61        -0.00088915
  62        -0.00099278
  63        -0.00088915
  64        -0.00099278
  65        -0.15277215
  66        -0.00235333
  67         0.00065003
  68        -0.00084031
  69         0.00087264
  70         0.00000000
  71        -0.00052477
  72         0.00054497
  73         0.00000000
  74        -0.00000000
  75        -0.00000000
  76        -0.00000000
  77         0.00000000
  78         0.00000000
  79         0.00000000
  80        -0.15277215
  81        -0.00235333
  82         0.00065003
  83         0.00084031
  84         0.00087264
  85         0.00000000
  86         0.00052477
  87         0.00054497
  88         0.00000000
  89        -0.00000000
  90        -0.00000000
  91        -0.00000000
  92        -0.00000000
  93         0.00000000
  94         0.00000000
  95        -0.00022347
  96        -0.00024951
  97        -0.00022347
  98        -0.00024951
Sym=     4a1 
Ene=    -1.5521
Spin= Alpha
Occup=    2.00000
   1        -0.03534925
   2         0.05020271
   3         0.05665030
   4         0.02347723
   5        -0.02634411
   6         0.00000000
   7         0.01466152
   8        -0.01645188
   9         0.00000000
  10         0.00000000
  11         0.00000000
  12         0.00000000
  13         0.00000000
  14         0.00000000
  15         0.00000000
  16        -0.03534925
  17         0.05020271
  18         0.05665030
  19        -0.02347723
  20        -0.02634411
  21         0.00000000
  22        -0.01466152
  23        -0.01645188
  24         0.00000000
  25         0.00000000
  26         0.00000000
  27         0.00000000
  28        -0.00000000
  29         0.00000000
  30         0.00000000
  31        -0.08830284
  32         0.11395697
  33         0.12876517
  34         0.03606355
  35        -0.03037586
  36         0.00000000
  37         0.02252167
  38        -0.01896971
  39         0.00000000
  40        -0.00000000
  41         0.00000000
  42        -0.00000000
  43        -0.00000000
  44         0.00000000
  45         0.00000000
  46        -0.08830284
  47         0.11395697
  48         0.12876517
  49        -0.03606355
  50        -0.03037586
  51         0.00000000
  52        -0.02252167
  53        -0.01896971
  54         0.00000000
  55        -0.00000000
  56         0.00000000
  57        -0.00000000
  58         0.00000000
  59         0.00000000
  60         0.00000000
  61         0.01142427
  62         0.01275579
  63         0.01142427
  64         0.01275579
  65        -0.14118401
  66         0.17564293
  67         0.19857572
  68         0.03450632
  69         0.01781537
  70         0.00000000
  71         0.02154918
  72         0.01112569
  73         0.00000000
  74        -0.00000000
  75         0.00000000
  76        -0.00000000
  77         0.00000000
  78         0.00000000
  79         0.00000000
  80        -0.14118401
  81         0.17564293
  82         0.19857572
  83        -0.03450632
  84         0.01781537
  85         0.00000000
  86        -0.02154918
  87         0.01112569
  88         0.00000000
  89        -0.00000000
  90         0.00000000
  91        -0.00000000
  92        -0.00000000
  93         0.00000000
  94         0.00000000
  95         0.07025895
  96         0.07844776
  97         0.07025895
  98         0.07844776
Sym=     5a1 
Ene=    -1.2381
Spin= Alpha
Occup=    2.00000
   1        -0.12941489
   2         0.17110575
   3         0.19327229
   4         0.01355206
   5        -0.01347908
   6         0.00000000
   7         0.00846325
   8        -0.00841768
   9         0.00000000
  10         0.00000000
  11         0.00000000
  12         0.00000000
  13         0.00000000
  14         0.00000000
  15         0.00000000
  16        -0.12941489
  17         0.17110575
  18         0.19327229
  19        -0.01355206
  20        -0.01347908
  21         0.00000000
  22        -0.00846325
  23        -0.00841768
  24         0.00000000
  25         0.00000000
  26         0.00000000
  27         0.00000000
  28        -0.00000000
  29         0.00000000
  30         0.00000000
  31        -0.08233202
  32         0.10765649
  33         0.12162267
  34        -0.05436036
  35         0.08164537
  36         0.00000000
  37        -0.03394802
  38         0.05098749
  39         0.00000000
  40         0.00000000
  41         0.00000000
  42        -0.00000000
  43        -0.00000000
  44         0.00000000
  45         0.00000000
  46        -0.08233202
  47         0.10765649
  48         0.12162267
  49         0.05436036
  50         0.08164537
  51         0.00000000
  52         0.03394802
  53         0.05098749
  54         0.00000000
  55         0.00000000
  56         0.00000000
  57        -0.00000000
  58         0.00000000
  59         0.00000000
  60         0.00000000
  61         0.07746378
  62         0.08649232
  63         0.07746378
  64         0.08649232
  65         0.06332082
  66        -0.07690724
  67        -0.08698077
  68        -0.04500516
  69         0.06190998
  70         0.00000000
  71        -0.02810570
  72         0.03866275
  73         0.00000000
  74         0.00000000
  75         0.00000000
  76         0.00000000
  77         0.00000000
  78         0.00000000
  79         0.00000000
  80         0.06332082
  81        -0.07690724
  82        -0.08698077
  83         0.04500516
  84         0.06190998
  85         0.00000000
  86         0.02810570
  87         0.03866275
  88         0.00000000
  89         0.00000000
  90         0.00000000
  91         0.00000000
  92        -0.00000000
  93         0.00000000
  94         0.00000000
  95        -0.05201539
  96        -0.05807788
  97        -0.05201539
  98        -0.05807788
Sym=     6a1 
Ene=    -0.9267
Spin= Alpha
Occup=    2.00000
   1        -0.05533754
   2         0.08497966
   3         0.09579738
   4        -0.09430961
   5         0.07378427
   6         0.00000000
   7        -0.05889630
   8         0.04607824
   9         0.00000000
  10        -0.00000000
  11         0.00000000
  12        -0.00000000
  13        -0.00000000
  14         0.00000000
  15         0.00000000
  16        -0.05533754
  17         0.08497966
  18         0.09579738
  19         0.09430961
  20         0.07378427
  21         0.00000000
  22         0.05889630
  23         0.04607824
  24         0.00000000
  25        -0.00000000
  26         0.00000000
  27        -0.00000000
  28         0.00000000
  29         0.00000000
  30         0.00000000
  31         0.06450995
  32        -0.08544543
  33        -0.09651230
  34        -0.09662343
  35         0.01279505
  36         0.00000000
  37        -0.06034128
  38         0.00799050
  39         0.00000000
  40         0.00000000
  41         0.00000000
  42         0.00000000
  43         0.00000000
  44         0.00000000
  45         0.00000000
  46         0.06450995
  47        -0.08544543
  48        -0.09651230
  49         0.09662343
  50         0.01279505
  51         0.00000000
  52         0.06034128
  53         0.00799050
  54         0.00000000
  55         0.00000000
  56         0.00000000
  57         0.00000000
  58        -0.00000000
  59         0.00000000
  60         0.00000000
  61         0.10348627
  62         0.11554778
  63         0.10348627
  64         0.11554778
  65        -0.01483008
  66         0.02471478
  67         0.02783386
  68         0.00377269
  69        -0.19533672
  70         0.00000000
  71         0.00235604
  72        -0.12198768
  73         0.00000000
  74        -0.00000000
  75        -0.00000000
  76        -0.00000000
  77        -0.00000000
  78         0.00000000
  79         0.00000000
  80        -0.01483008
  81         0.02471478
  82         0.02783386
  83        -0.00377269
  84        -0.19533672
  85         0.00000000
  86        -0.00235604
  87        -0.12198768
  88         0.00000000
  89        -0.00000000
  90        -0.00000000
  91        -0.00000000
  92         0.00000000
  93         0.00000000
  94         0.00000000
  95         0.10070373
  96         0.11244093
  97         0.10070373
  98         0.11244093
Sym=     7a1 
Ene=    -0.7779
Spin= Alpha
Occup=    2.00000
   1        -0.00665076
   2         0.02255948
   3         0.02525916
   4        -0.01981603
   5         0.17751916
   6         0.00000000
   7        -0.01237510
   8         0.11086062
   9         0.00000000
  10        -0.00000000
  11        -0.00000000
  12         0.00000000
  13         0.00000000
  14         0.00000000
  15         0.00000000
  16        -0.00665076
  17         0.02255948
  18         0.02525916
  19         0.01981603
  20         0.17751916
  21         0.00000000
  22         0.01237510
  23         0.11086062
  24         0.00000000
  25        -0.00000000
  26        -0.00000000
  27         0.00000000
  28        -0.00000000
  29         0.00000000
  30         0.00000000
  31         0.05775395
  32        -0.07845382
  33        -0.08858351
  34         0.15112487
  35         0.05662334
  36         0.00000000
  37         0.09437740
  38         0.03536124
  39         0.00000000
  40         0.00000000
  41         0.00000000
  42         0.00000000
  43        -0.00000000
  44         0.00000000
  45         0.00000000
  46         0.05775395
  47        -0.07845382
  48        -0.08858351
  49        -0.15112487
  50         0.05662334
  51         0.00000000
  52        -0.09437740
  53         0.03536124
  54         0.00000000
  55         0.00000000
  56         0.00000000
  57         0.00000000
  58         0.00000000
  59         0.00000000
  60         0.00000000
  61         0.10139207
  62         0.11320950
  63         0.10139207
  64         0.11320950
  65        -0.03516841
  66         0.04260146
  67         0.04818351
  68         0.18137593
  69         0.09127923
  70         0.00000000
  71         0.11326918
  72         0.05700383
  73         0.00000000
  74        -0.00000000
  75        -0.00000000
  76        -0.00000000
  77        -0.00000000
  78         0.00000000
  79         0.00000000
  80        -0.03516841
  81         0.04260146
  82         0.04818351
  83        -0.18137593
  84         0.09127923
  85         0.00000000
  86        -0.11326918
  87         0.05700383
  88         0.00000000
  89        -0.00000000
  90        -0.00000000
  91        -0.00000000
  92         0.00000000
  93         0.00000000
  94         0.00000000
  95        -0.07286271
  96        -0.08135499
  97        -0.07286271
  98        -0.08135499
Sym=     8a1 
Ene=    -0.6223
Spin= Alpha
Occup=    2.00000
   1        -0.02980076
   2         0.02850264
   3         0.03237157
   4         0.21007011
   5        -0.04509108
   6         0.00000000
   7         0.13118867
   8        -0.02815935
   9         0.00000000
  10        -0.00000000
  11        -0.00000000
  12        -0.00000000
  13        -0.00000000
  14         0.00000000
  15         0.00000000
  16        -0.02980076
  17         0.02850264
  18         0.03237157
  19        -0.21007011
  20        -0.04509108
  21         0.00000000
  22        -0.13118867
  23        -0.02815935
  24         0.00000000
  25        -0.00000000
  26        -0.00000000
  27        -0.00000000
  28         0.00000000
  29         0.00000000
  30         0.00000000
  31        -0.00528130
  32        -0.00764116
  33        -0.00839430
  34         0.00620859
  35         0.24350880
  36         0.00000000
  37         0.00387726
  38         0.15207112
  39         0.00000000
  40         0.00000000
  41         0.00000000
  42         0.00000000
  43         0.00000000
  44         0.00000000
  45         0.00000000
  46        -0.00528130
  47        -0.00764116
  48        -0.00839430
  49        -0.00620859
  50         0.24350880
  51         0.00000000
  52        -0.00387726
  53         0.15207112
  54         0.00000000
  55         0.00000000
  56         0.00000000
  57         0.00000000
  58        -0.00000000
  59         0.00000000
  60         0.00000000
  61        -0.09537411
  62        -0.10649013
  63        -0.09537411
  64        -0.10649013
  65         0.00669480
  66        -0.01721796
  67        -0.01931308
  68         0.15351889
  69        -0.14426786
  70         0.00000000
  71         0.09587247
  72        -0.09009521
  73         0.00000000
  74        -0.00000000
  75        -0.00000000
  76         0.00000000
  77         0.00000000
  78         0.00000000
  79         0.00000000
  80         0.00669480
  81        -0.01721796
  82        -0.01931308
  83        -0.15351889
  84        -0.14426786
  85         0.00000000
  86        -0.09587247
  87        -0.09009521
  88         0.00000000
  89        -0.00000000
  90        -0.00000000
  91         0.00000000
  92        -0.00000000
  93         0.00000000
  94         0.00000000
  95         0.02582891
  96         0.02883931
  97         0.02582891
  98         0.02883931
Sym=     9a1 
Ene=    -0.5178
Spin= Alpha
Occup=    2.00000
   1         0.01716505
   2        -0.02297897
   3        -0.02595126
   4         0.18533547
   5         0.20614271
   6         0.00000000
   7         0.11574191
   8         0.12873601
   9         0.00000000
  10         0.00000000
  11         0.00000000
  12         0.00000000
  13         0.00000000
  14         0.00000000
  15         0.00000000
  16         0.01716505
  17        -0.02297897
  18        -0.02595126
  19        -0.18533547
  20         0.20614271
  21         0.00000000
  22        -0.11574191
  23         0.12873601
  24         0.00000000
  25         0.00000000
  26         0.00000000
  27         0.00000000
  28        -0.00000000
  29         0.00000000
  30         0.00000000
  31        -0.00919271
  32         0.02657407
  33         0.02978325
  34         0.18077400
  35         0.02364523
  36         0.00000000
  37         0.11289327
  38         0.01476643
  39         0.00000000
  40        -0.00000000
  41        -0.00000000
  42        -0.00000000
  43        -0.00000000
  44         0.00000000
  45         0.00000000
  46        -0.00919271
  47         0.02657407
  48         0.02978325
  49        -0.18077400
  50         0.02364523
  51         0.00000000
  52        -0.11289327
  53         0.01476643
  54         0.00000000
  55        -0.00000000
  56        -0.00000000
  57        -0.00000000
  58         0.00000000
  59         0.00000000
  60         0.00000000
  61         0.03156438
  62         0.03524327
  63         0.03156438
  64         0.03524327
  65         0.02982012
  66        -0.04309165
  67        -0.04861479
  68        -0.26104532
  69        -0.03001195
  70         0.00000000
  71        -0.16302267
  72        -0.01874245
  73         0.00000000
  74        -0.00000000
  75         0.00000000
  76        -0.00000000
  77        -0.00000000
  78         0.00000000
  79         0.00000000
  80         0.02982012
  81        -0.04309165
  82        -0.04861479
  83         0.26104532
  84        -0.03001195
  85         0.00000000
  86         0.16302267
  87        -0.01874245
  88         0.00000000
  89        -0.00000000
  90         0.00000000
  91        -0.00000000
  92         0.00000000
  93         0.00000000
  94         0.00000000
  95         0.10065444
  96         0.11238589
  97         0.10065444
  98         0.11238589
Sym=    10a1 
Ene=    -0.2616
Spin= Alpha
Occup=    0.00000
   1         0.00305813
   2        -0.00613757
   3        -0.00689878
   4        -0.33629019
   5        -0.24220357
   6         0.00000000
   7        -0.21001305
   8        -0.15125600
   9         0.00000000
  10        -0.00000000
  11        -0.00000000
  12         0.00000000
  13         0.00000000
  14         0.00000000
  15         0.00000000
  16         0.00305813
  17        -0.00613757
  18        -0.00689878
  19         0.33629019
  20        -0.24220357
  21         0.00000000
  22         0.21001305
  23        -0.15125600
  24         0.00000000
  25        -0.00000000
  26        -0.00000000
  27         0.00000000
  28        -0.00000000
  29         0.00000000
  30         0.00000000
  31        -0.00122796
  32         0.00988580
  33         0.01103273
  34         0.35532251
  35         0.25344453
  36         0.00000000
  37         0.22189872
  38         0.15827598
  39         0.00000000
  40        -0.00000000
  41         0.00000000
  42        -0.00000000
  43        -0.00000000
  44         0.00000000
  45         0.00000000
  46        -0.00122796
  47         0.00988580
  48         0.01103273
  49        -0.35532251
  50         0.25344453
  51         0.00000000
  52        -0.22189872
  53         0.15827598
  54         0.00000000
  55        -0.00000000
  56         0.00000000
  57        -0.00000000
  58         0.00000000
  59         0.00000000
  60         0.00000000
  61         0.00326694
  62         0.00364770
  63         0.00326694
  64         0.00364770
  65         0.02693881
  66        -0.07257383
  67        -0.08137735
  68        -0.07319728
  69        -0.01154963
  70         0.00000000
  71        -0.04571166
  72        -0.00721274
  73         0.00000000
  74        -0.00000000
  75        -0.00000000
  76        -0.00000000
  77        -0.00000000
  78         0.00000000
  79         0.00000000
  80         0.02693881
  81        -0.07257383
  82        -0.08137735
  83         0.07319728
  84        -0.01154963
  85         0.00000000
  86         0.04571166
  87        -0.00721274
  88         0.00000000
  89        -0.00000000
  90        -0.00000000
  91        -0.00000000
  92         0.00000000
  93         0.00000000
  94         0.00000000
  95         0.11835053
  96         0.13214449
  97         0.11835053
  98         0.13214449
Sym=    11a1 
Ene=    -0.1531
Spin= Alpha
Occup=    0.00000
   1        -0.07718840
   2         0.30838124
   3         0.34499127
   4        -0.03684332
   5         0.07879860
   6         0.00000000
   7        -0.02300864
   8         0.04920969
   9         0.00000000
  10        -0.00000000
  11         0.00000000
  12         0.00000000
  13         0.00000000
  14         0.00000000
  15         0.00000000
  16        -0.07718840
  17         0.30838124
  18         0.34499127
  19         0.03684332
  20         0.07879860
  21         0.00000000
  22         0.02300864