[Molden Format]
[N_Atoms]
                   10
[Atoms] (AU)
C1          1      6          -4.17334117      1.98618035      0.00000000
C1          2      6           4.17334117      1.98618035      0.00000000
C2          3      6          -2.81680496      0.19716478      0.00000000
C2          4      6           2.81680496      0.19716478      0.00000000
H3          5      1           5.35837138      3.59381466      0.00000000
H3          6      1          -5.35837138      3.59381466      0.00000000
C4          7      6          -1.25521675     -2.01758573      0.00000000
C4          8      6           1.25521675     -2.01758573      0.00000000
H5          9      1          -2.23214146     -3.79902477      0.00000000
H5         10      1           2.23214146     -3.79902477      0.00000000
[Charge] (Mulliken)
  -1.0140128915223929     
  -1.0140128915223929     
  0.30397334548873900     
  0.30397334548873900     
  0.59521762246489240     
  0.59521762246489240     
 -0.34856825752084220     
 -0.34856825752084220     
  0.46339018108959595     
  0.46339018108959595     
[GTO] (AU)
   1
   s   6
  3.047524880E+03  1.834737132E-03
  4.573695180E+02  1.403732281E-02
  1.039486850E+02  6.884262227E-02
  2.921015530E+01  2.321844432E-01
  9.286662960E+00  4.679413484E-01
  3.163926960E+00  3.623119853E-01
   s   3
  7.868272350E+00 -1.193324198E-01
  1.881288540E+00 -1.608541517E-01
  5.442492580E-01  1.143456438E+00
   s   1
  1.687144782E-01  1.000000000E+00
   p   3
  7.868272350E+00  6.899906659E-02
  1.881288540E+00  3.164239610E-01
  5.442492580E-01  7.443082909E-01
   p   1
  1.687144782E-01  1.000000000E+00
   d   1
  8.000000000E-01  1.000000000E+00
 
   2
   s   6
  3.047524880E+03  1.834737132E-03
  4.573695180E+02  1.403732281E-02
  1.039486850E+02  6.884262227E-02
  2.921015530E+01  2.321844432E-01
  9.286662960E+00  4.679413484E-01
  3.163926960E+00  3.623119853E-01
   s   3
  7.868272350E+00 -1.193324198E-01
  1.881288540E+00 -1.608541517E-01
  5.442492580E-01  1.143456438E+00
   s   1
  1.687144782E-01  1.000000000E+00
   p   3
  7.868272350E+00  6.899906659E-02
  1.881288540E+00  3.164239610E-01
  5.442492580E-01  7.443082909E-01
   p   1
  1.687144782E-01  1.000000000E+00
   d   1
  8.000000000E-01  1.000000000E+00
 
   3
   s   6
  3.047524880E+03  1.834737132E-03
  4.573695180E+02  1.403732281E-02
  1.039486850E+02  6.884262227E-02
  2.921015530E+01  2.321844432E-01
  9.286662960E+00  4.679413484E-01
  3.163926960E+00  3.623119853E-01
   s   3
  7.868272350E+00 -1.193324198E-01
  1.881288540E+00 -1.608541517E-01
  5.442492580E-01  1.143456438E+00
   s   1
  1.687144782E-01  1.000000000E+00
   p   3
  7.868272350E+00  6.899906659E-02
  1.881288540E+00  3.164239610E-01
  5.442492580E-01  7.443082909E-01
   p   1
  1.687144782E-01  1.000000000E+00
   d   1
  8.000000000E-01  1.000000000E+00
 
   4
   s   6
  3.047524880E+03  1.834737132E-03
  4.573695180E+02  1.403732281E-02
  1.039486850E+02  6.884262227E-02
  2.921015530E+01  2.321844432E-01
  9.286662960E+00  4.679413484E-01
  3.163926960E+00  3.623119853E-01
   s   3
  7.868272350E+00 -1.193324198E-01
  1.881288540E+00 -1.608541517E-01
  5.442492580E-01  1.143456438E+00
   s   1
  1.687144782E-01  1.000000000E+00
   p   3
  7.868272350E+00  6.899906659E-02
  1.881288540E+00  3.164239610E-01
  5.442492580E-01  7.443082909E-01
   p   1
  1.687144782E-01  1.000000000E+00
   d   1
  8.000000000E-01  1.000000000E+00
 
   5
   s   3
  1.873113696E+01  3.349460434E-02
  2.825394365E+00  2.347269535E-01
  6.401216923E-01  8.137573261E-01
   s   1
  1.612777588E-01  1.000000000E+00
 
   6
   s   3
  1.873113696E+01  3.349460434E-02
  2.825394365E+00  2.347269535E-01
  6.401216923E-01  8.137573261E-01
   s   1
  1.612777588E-01  1.000000000E+00
 
   7
   s   6
  3.047524880E+03  1.834737132E-03
  4.573695180E+02  1.403732281E-02
  1.039486850E+02  6.884262227E-02
  2.921015530E+01  2.321844432E-01
  9.286662960E+00  4.679413484E-01
  3.163926960E+00  3.623119853E-01
   s   3
  7.868272350E+00 -1.193324198E-01
  1.881288540E+00 -1.608541517E-01
  5.442492580E-01  1.143456438E+00
   s   1
  1.687144782E-01  1.000000000E+00
   p   3
  7.868272350E+00  6.899906659E-02
  1.881288540E+00  3.164239610E-01
  5.442492580E-01  7.443082909E-01
   p   1
  1.687144782E-01  1.000000000E+00
   d   1
  8.000000000E-01  1.000000000E+00
 
   8
   s   6
  3.047524880E+03  1.834737132E-03
  4.573695180E+02  1.403732281E-02
  1.039486850E+02  6.884262227E-02
  2.921015530E+01  2.321844432E-01
  9.286662960E+00  4.679413484E-01
  3.163926960E+00  3.623119853E-01
   s   3
  7.868272350E+00 -1.193324198E-01
  1.881288540E+00 -1.608541517E-01
  5.442492580E-01  1.143456438E+00
   s   1
  1.687144782E-01  1.000000000E+00
   p   3
  7.868272350E+00  6.899906659E-02
  1.881288540E+00  3.164239610E-01
  5.442492580E-01  7.443082909E-01
   p   1
  1.687144782E-01  1.000000000E+00
   d   1
  8.000000000E-01  1.000000000E+00
 
   9
   s   3
  1.873113696E+01  3.349460434E-02
  2.825394365E+00  2.347269535E-01
  6.401216923E-01  8.137573261E-01
   s   1
  1.612777588E-01  1.000000000E+00
 
  10
   s   3
  1.873113696E+01  3.349460434E-02
  2.825394365E+00  2.347269535E-01
  6.401216923E-01  8.137573261E-01
   s   1
  1.612777588E-01  1.000000000E+00
 
[MO]
Sym=     1a1 
Ene=   -11.2710
Spin= Alpha
Occup=    2.00000
   1         0.00023649
   2         0.00024745
   3        -0.00319354
   4         0.00009612
   5        -0.00008760
   6         0.00000000
   7        -0.00142227
   8         0.00182694
   9         0.00000000
  10         0.00006579
  11         0.00005596
  12         0.00000492
  13        -0.00006286
  14         0.00000000
  15         0.00000000
  16         0.00023649
  17         0.00024745
  18        -0.00319354
  19        -0.00009612
  20        -0.00008760
  21         0.00000000
  22         0.00142227
  23         0.00182694
  24         0.00000000
  25         0.00006579
  26         0.00005596
  27         0.00000492
  28         0.00006286
  29         0.00000000
  30         0.00000000
  31         0.00832266
  32         0.00014174
  33         0.00514303
  34        -0.00002945
  35         0.00008162
  36         0.00000000
  37        -0.00088651
  38         0.00120776
  39         0.00000000
  40        -0.00025329
  41        -0.00055251
  42        -0.00015202
  43         0.00019610
  44         0.00000000
  45         0.00000000
  46         0.00832266
  47         0.00014174
  48         0.00514303
  49         0.00002945
  50         0.00008162
  51         0.00000000
  52         0.00088651
  53         0.00120776
  54         0.00000000
  55        -0.00025329
  56        -0.00055251
  57        -0.00015202
  58        -0.00019610
  59         0.00000000
  60         0.00000000
  61        -0.00011024
  62        -0.00068014
  63        -0.00011024
  64        -0.00068014
  65         0.70372048
  66         0.01928191
  67        -0.00509170
  68        -0.00031972
  69         0.00037017
  70         0.00000000
  71         0.00074781
  72        -0.00010641
  73         0.00000000
  74        -0.00120059
  75        -0.00148131
  76        -0.00178261
  77        -0.00008667
  78         0.00000000
  79         0.00000000
  80         0.70372048
  81         0.01928191
  82        -0.00509170
  83         0.00031972
  84         0.00037017
  85         0.00000000
  86        -0.00074781
  87        -0.00010641
  88         0.00000000
  89        -0.00120059
  90        -0.00148131
  91        -0.00178261
  92         0.00008667
  93         0.00000000
  94         0.00000000
  95        -0.00008019
  96         0.00136718
  97        -0.00008019
  98         0.00136718
Sym=     2a1 
Ene=   -11.2360
Spin= Alpha
Occup=    2.00000
   1         0.22853615
   2         0.00542424
   3         0.00054261
   4        -0.00025240
   5         0.00031643
   6         0.00000000
   7         0.00060075
   8        -0.00096656
   9         0.00000000
  10        -0.00059766
  11        -0.00036664
  12        -0.00081686
  13        -0.00035580
  14         0.00000000
  15         0.00000000
  16         0.22853615
  17         0.00542424
  18         0.00054261
  19         0.00025240
  20         0.00031643
  21         0.00000000
  22        -0.00060075
  23        -0.00096656
  24         0.00000000
  25        -0.00059766
  26        -0.00036664
  27        -0.00081686
  28         0.00035580
  29         0.00000000
  30         0.00000000
  31         0.66535644
  32         0.01784500
  33        -0.00547649
  34         0.00002736
  35        -0.00021368
  36         0.00000000
  37        -0.00002297
  38         0.00049156
  39         0.00000000
  40        -0.00134397
  41        -0.00076085
  42        -0.00203670
  43        -0.00106083
  44         0.00000000
  45         0.00000000
  46         0.66535644
  47         0.01784500
  48        -0.00547649
  49        -0.00002736
  50        -0.00021368
  51         0.00000000
  52         0.00002297
  53         0.00049156
  54         0.00000000
  55        -0.00134397
  56        -0.00076085
  57        -0.00203670
  58         0.00106083
  59         0.00000000
  60         0.00000000
  61        -0.00030111
  62         0.00063426
  63        -0.00030111
  64         0.00063426
  65        -0.00826598
  66        -0.00023077
  67         0.00185769
  68         0.00032652
  69        -0.00049915
  70         0.00000000
  71        -0.00048937
  72         0.00059255
  73         0.00000000
  74        -0.00032483
  75        -0.00061318
  76        -0.00016653
  77         0.00038658
  78         0.00000000
  79         0.00000000
  80        -0.00826598
  81        -0.00023077
  82         0.00185769
  83        -0.00032652
  84        -0.00049915
  85         0.00000000
  86         0.00048937
  87         0.00059255
  88         0.00000000
  89        -0.00032483
  90        -0.00061318
  91        -0.00016653
  92        -0.00038658
  93         0.00000000
  94         0.00000000
  95        -0.00008105
  96         0.00010651
  97        -0.00008105
  98         0.00010651
Sym=     3a1 
Ene=   -11.2300
Spin= Alpha
Occup=    2.00000
   1        -0.66577590
   2        -0.01845604
   3         0.01031975
   4        -0.00013646
   5         0.00016488
   6         0.00000000
   7         0.00193818
   8        -0.00261824
   9         0.00000000
  10         0.00141657
  11         0.00108249
  12         0.00187227
  13         0.00068180
  14         0.00000000
  15         0.00000000
  16        -0.66577590
  17        -0.01845604
  18         0.01031975
  19         0.00013646
  20         0.00016488
  21         0.00000000
  22        -0.00193818
  23        -0.00261824
  24         0.00000000
  25         0.00141657
  26         0.00108249
  27         0.00187227
  28        -0.00068180
  29         0.00000000
  30         0.00000000
  31         0.22955152
  32         0.00704922
  33        -0.00849157
  34        -0.00020257
  35         0.00019918
  36         0.00000000
  37         0.00218363
  38        -0.00271439
  39         0.00000000
  40        -0.00044510
  41        -0.00038690
  42        -0.00049449
  43        -0.00008042
  44         0.00000000
  45         0.00000000
  46         0.22955152
  47         0.00704922
  48        -0.00849157
  49         0.00020257
  50         0.00019918
  51         0.00000000
  52        -0.00218363
  53        -0.00271439
  54         0.00000000
  55        -0.00044510
  56        -0.00038690
  57        -0.00049449
  58         0.00008042
  59         0.00000000
  60         0.00000000
  61         0.00060638
  62        -0.00048753
  63         0.00060638
  64        -0.00048753
  65        -0.00264133
  66        -0.00014735
  67        -0.00001548
  68         0.00003565
  69        -0.00008487
  70         0.00000000
  71        -0.00011418
  72         0.00009674
  73         0.00000000
  74        -0.00005905
  75        -0.00009165
  76        -0.00005980
  77         0.00003546
  78         0.00000000
  79         0.00000000
  80        -0.00264133
  81        -0.00014735
  82        -0.00001548
  83        -0.00003565
  84        -0.00008487
  85         0.00000000
  86         0.00011418
  87         0.00009674
  88         0.00000000
  89        -0.00005905
  90        -0.00009165
  91        -0.00005980
  92        -0.00003546
  93         0.00000000
  94         0.00000000
  95        -0.00004005
  96         0.00006678
  97        -0.00004005
  98         0.00006678
Sym=     4a1 
Ene=    -1.1161
Spin= Alpha
Occup=    2.00000
   1        -0.04351779
   2         0.07655202
   3         0.10692493
   4         0.02846155
   5        -0.03572299
   6         0.00000000
   7         0.01973664
   8        -0.02555914
   9         0.00000000
  10         0.00035049
  11         0.00189044
  12        -0.00246061
  13        -0.00389573
  14         0.00000000
  15         0.00000000
  16        -0.04351779
  17         0.07655202
  18         0.10692493
  19        -0.02846155
  20        -0.03572299
  21         0.00000000
  22        -0.01973664
  23        -0.02555914
  24         0.00000000
  25         0.00035049
  26         0.00189044
  27        -0.00246061
  28         0.00389573
  29         0.00000000
  30         0.00000000
  31        -0.08502760
  32         0.16220892
  33         0.05974094
  34         0.02378609
  35        -0.02475916
  36         0.00000000
  37         0.03551934
  38        -0.04547410
  39         0.00000000
  40         0.00330946
  41         0.00926800
  42        -0.00657383
  43        -0.01415489
  44         0.00000000
  45         0.00000000
  46        -0.08502760
  47         0.16220892
  48         0.05974094
  49        -0.02378609
  50        -0.02475916
  51         0.00000000
  52        -0.03551934
  53        -0.04547410
  54         0.00000000
  55         0.00330946
  56         0.00926800
  57        -0.00657383
  58         0.01415489
  59         0.00000000
  60         0.00000000
  61         0.01451331
  62         0.00689948
  63         0.01451331
  64         0.00689948
  65        -0.13600034
  66         0.26353690
  67         0.15255100
  68         0.06578631
  69         0.02973506
  70         0.00000000
  71         0.00885193
  72        -0.01093522
  73         0.00000000
  74         0.01327433
  75         0.00408807
  76        -0.01108378
  77        -0.00000251
  78         0.00000000
  79         0.00000000
  80        -0.13600034
  81         0.26353690
  82         0.15255100
  83        -0.06578631
  84         0.02973506
  85         0.00000000
  86        -0.00885193
  87        -0.01093522
  88         0.00000000
  89         0.01327433
  90         0.00408807
  91        -0.01108378
  92         0.00000251
  93         0.00000000
  94         0.00000000
  95         0.06468923
  96         0.00374369
  97         0.06468923
  98         0.00374369
Sym=     5a1 
Ene=    -0.9987
Spin= Alpha
Occup=    2.00000
   1         0.11844395
   2        -0.21746971
   3        -0.18334645
   4        -0.05998045
   5         0.08031765
   6         0.00000000
   7         0.00077201
   8        -0.00273178
   9         0.00000000
  10        -0.00149429
  11        -0.00976676
  12         0.00929292
  13         0.01633869
  14         0.00000000
  15         0.00000000
  16         0.11844395
  17        -0.21746971
  18        -0.18334645
  19         0.05998045
  20         0.08031765
  21         0.00000000
  22        -0.00077201
  23        -0.00273178
  24         0.00000000
  25        -0.00149429
  26        -0.00976676
  27         0.00929292
  28        -0.01633869
  29         0.00000000
  30         0.00000000
  31         0.08874589
  32        -0.15781820
  33        -0.12949189
  34         0.09758040
  35        -0.12479867
  36         0.00000000
  37        -0.00583005
  38         0.01396234
  39         0.00000000
  40         0.00247194
  41        -0.00032937
  42         0.00527464
  43         0.00421234
  44         0.00000000
  45         0.00000000
  46         0.08874589
  47        -0.15781820
  48        -0.12949189
  49        -0.09758040
  50        -0.12479867
  51         0.00000000
  52         0.00583005
  53         0.01396234
  54         0.00000000
  55         0.00247194
  56        -0.00032937
  57         0.00527464
  58        -0.00421234
  59         0.00000000
  60         0.00000000
  61        -0.05178097
  62        -0.00044392
  63        -0.05178097
  64        -0.00044392
  65        -0.07352064
  66         0.13957416
  67         0.14134406
  68         0.08258574
  69        -0.03562684
  70         0.00000000
  71         0.00238806
  72         0.00163509
  73         0.00000000
  74         0.00759793
  75        -0.00224758
  76        -0.00607217
  77         0.00477725
  78         0.00000000
  79         0.00000000
  80        -0.07352064
  81         0.13957416
  82         0.14134406
  83        -0.08258574
  84        -0.03562684
  85         0.00000000
  86        -0.00238806
  87         0.00163509
  88         0.00000000
  89         0.00759793
  90        -0.00224758
  91        -0.00607217
  92        -0.00477725
  93         0.00000000
  94         0.00000000
  95         0.04614320
  96         0.01156157
  97         0.04614320
  98         0.01156157
Sym=     6a1 
Ene=    -0.7503
Spin= Alpha
Occup=    2.00000
   1        -0.06775907
   2         0.13771232
   3         0.09369582
   4        -0.09181230
   5         0.11848212
   6         0.00000000
   7        -0.05704507
   8         0.07037073
   9         0.00000000
  10         0.00425350
  11         0.01356166
  12        -0.00569914
  13        -0.01616942
  14         0.00000000
  15         0.00000000
  16        -0.06775907
  17         0.13771232
  18         0.09369582
  19         0.09181230
  20         0.11848212
  21         0.00000000
  22         0.05704507
  23         0.07037073
  24         0.00000000
  25         0.00425350
  26         0.01356166
  27        -0.00569914
  28         0.01616942
  29         0.00000000
  30         0.00000000
  31         0.06935307
  32        -0.14376633
  33        -0.06846593
  34        -0.06677760
  35         0.08046597
  36         0.00000000
  37        -0.03548052
  38         0.04972606
  39         0.00000000
  40        -0.00219186
  41        -0.00871817
  42         0.00564834
  43         0.01236202
  44         0.00000000
  45         0.00000000
  46         0.06935307
  47        -0.14376633
  48        -0.06846593
  49         0.06677760
  50         0.08046597
  51         0.00000000
  52         0.03548052
  53         0.04972606
  54         0.00000000
  55        -0.00219186
  56        -0.00871817
  57         0.00564834
  58        -0.01236202
  59         0.00000000
  60         0.00000000
  61         0.14684445
  62         0.06430298
  63         0.14684445
  64         0.06430298
  65        -0.02125078
  66         0.04116154
  67         0.04864286
  68         0.13103507
  69        -0.19356835
  70         0.00000000
  71         0.02941133
  72        -0.06503214
  73         0.00000000
  74         0.00598015
  75        -0.00334607
  76        -0.00061576
  77         0.00809765
  78         0.00000000
  79         0.00000000
  80        -0.02125078
  81         0.04116154
  82         0.04864286
  83        -0.13103507
  84        -0.19356835
  85         0.00000000
  86        -0.02941133
  87        -0.06503214
  88         0.00000000
  89         0.00598015
  90        -0.00334607
  91        -0.00061576
  92        -0.00809765
  93         0.00000000
  94         0.00000000
  95         0.07373809
  96         0.03608126
  97         0.07373809
  98         0.03608126
Sym=     7a1 
Ene=    -0.6829
Spin= Alpha
Occup=    2.00000
   1        -0.00912880
   2         0.02939105
   3        -0.07605416
   4        -0.12703373
   5         0.20063920
   6         0.00000000
   7        -0.07809708
   8         0.12015699
   9         0.00000000
  10         0.00652685
  11         0.00642083
  12         0.00011119
  13        -0.00763043
  14         0.00000000
  15         0.00000000
  16        -0.00912880
  17         0.02939105
  18        -0.07605416
  19         0.12703373
  20         0.20063920
  21         0.00000000
  22         0.07809708
  23         0.12015699
  24         0.00000000
  25         0.00652685
  26         0.00642083
  27         0.00011119
  28         0.00763043
  29         0.00000000
  30         0.00000000
  31         0.01103269
  32        -0.01551152
  33         0.07476016
  34         0.15236554
  35        -0.13735671
  36         0.00000000
  37        -0.03625776
  38         0.06802903
  39         0.00000000
  40         0.00315796
  41        -0.00079307
  42         0.00198663
  43        -0.00019400
  44         0.00000000
  45         0.00000000
  46         0.01103269
  47        -0.01551152
  48         0.07476016
  49        -0.15236554
  50        -0.13735671
  51         0.00000000
  52         0.03625776
  53         0.06802903
  54         0.00000000
  55         0.00315796
  56        -0.00079307
  57         0.00198663
  58         0.00019400
  59         0.00000000
  60         0.00000000
  61         0.14251106
  62         0.07177300
  63         0.14251106
  64         0.07177300
  65        -0.00175880
  66         0.00163273
  67         0.05635179
  68         0.02769179
  69         0.23326010
  70         0.00000000
  71         0.00124926
  72         0.11820317
  73         0.00000000
  74         0.00019308
  75        -0.00328574
  76        -0.00058304
  77        -0.00749259
  78         0.00000000
  79         0.00000000
  80        -0.00175880
  81         0.00163273
  82         0.05635179
  83        -0.02769179
  84         0.23326010
  85         0.00000000
  86        -0.00124926
  87         0.11820317
  88         0.00000000
  89         0.00019308
  90        -0.00328574
  91        -0.00058304
  92         0.00749259
  93         0.00000000
  94         0.00000000
  95        -0.12143878
  96        -0.06707947
  97        -0.12143878
  98        -0.06707947
Sym=     8a1 
Ene=    -0.6484
Spin= Alpha
Occup=    2.00000
   1        -0.00715639
   2         0.00687409
   3         0.07625863
   4         0.10310786
   5        -0.07124827
   6         0.00000000
   7         0.06446987
   8        -0.05059029
   9         0.00000000
  10         0.00218955
  11        -0.00765326
  12        -0.00109825
  13         0.00043623
  14         0.00000000
  15         0.00000000
  16        -0.00715639
  17         0.00687409
  18         0.07625863
  19        -0.10310786
  20        -0.07124827
  21         0.00000000
  22        -0.06446987
  23        -0.05059029
  24         0.00000000
  25         0.00218955
  26        -0.00765326
  27        -0.00109825
  28        -0.00043623
  29         0.00000000
  30         0.00000000
  31         0.01081395
  32        -0.02550113
  33        -0.08372125
  34        -0.02530313
  35         0.17189270
  36         0.00000000
  37         0.04513410
  38        -0.01399602
  39         0.00000000
  40         0.00491393
  41        -0.00582606
  42         0.00024168
  43        -0.00146037
  44         0.00000000
  45         0.00000000
  46         0.01081395
  47        -0.02550113
  48        -0.08372125
  49         0.02530313
  50         0.17189270
  51         0.00000000
  52        -0.04513410
  53        -0.01399602
  54         0.00000000
  55         0.00491393
  56        -0.00582606
  57         0.00024168
  58         0.00146037
  59         0.00000000
  60         0.00000000
  61        -0.06113274
  62        -0.03155369
  63        -0.06113274
  64        -0.03155369
  65        -0.01001229
  66         0.02473288
  67        -0.05643733
  68         0.37165168
  69         0.06096075
  70         0.00000000
  71         0.14065923
  72         0.01471991
  73         0.00000000
  74         0.00863559
  75        -0.02045934
  76         0.00151977
  77         0.00179314
  78         0.00000000
  79         0.00000000
  80        -0.01001229
  81         0.02473288
  82        -0.05643733
  83        -0.37165168
  84         0.06096075
  85         0.00000000
  86        -0.14065923
  87         0.01471991
  88         0.00000000
  89         0.00863559
  90        -0.02045934
  91         0.00151977
  92        -0.00179314
  93         0.00000000
  94         0.00000000
  95        -0.12582187
  96        -0.08858605
  97        -0.12582187
  98        -0.08858605
Sym=     9a1 
Ene=    -0.4000
Spin= Alpha
Occup=    2.00000
   1         0.00269268
   2        -0.00671006
   3         0.01497655
   4         0.21667605
   5         0.17064930
   6         0.00000000
   7         0.15977134
   8         0.10441450
   9         0.00000000
  10         0.01470813
  11        -0.01455424
  12        -0.00042074
  13        -0.00496752
  14         0.00000000
  15         0.00000000
  16         0.00269268
  17        -0.00671006
  18         0.01497655
  19        -0.21667605
  20         0.17064930
  21         0.00000000
  22        -0.15977134
  23         0.10441450
  24         0.00000000
  25         0.01470813
  26        -0.01455424
  27        -0.00042074
  28         0.00496752
  29         0.00000000
  30         0.00000000
  31        -0.00188686
  32         0.00153463
  33         0.00605696
  34         0.21769854
  35         0.15298534
  36         0.00000000
  37         0.16436756
  38         0.08986379
  39         0.00000000
  40        -0.01746957
  41         0.01628556
  42        -0.00033721
  43         0.00691634
  44         0.00000000
  45         0.00000000
  46        -0.00188686
  47         0.00153463
  48         0.00605696
  49        -0.21769854
  50         0.15298534
  51         0.00000000
  52        -0.16436756
  53         0.08986379
  54         0.00000000
  55        -0.01746957
  56         0.01628556
  57        -0.00033721
  58        -0.00691634
  59         0.00000000
  60         0.00000000
  61         0.00225550
  62         0.00673587
  63         0.00225550
  64         0.00673587
  65         0.01222200
  66        -0.02787295
  67        -0.04025646
  68        -0.10189887
  69        -0.04959597
  70         0.00000000
  71        -0.04306891
  72        -0.03691063
  73         0.00000000
  74        -0.01164468
  75         0.01593769
  76        -0.00046618
  77         0.00612484
  78         0.00000000
  79         0.00000000
  80         0.01222200
  81        -0.02787295
  82        -0.04025646
  83         0.10189887
  84        -0.04959597
  85         0.00000000
  86         0.04306891
  87        -0.03691063
  88         0.00000000
  89        -0.01164468
  90         0.01593769
  91        -0.00046618
  92        -0.00612484
  93         0.00000000
  94         0.00000000
  95         0.06740960
  96         0.07549635
  97         0.06740960
  98         0.07549635
Sym=    10a1 
Ene=     0.1933
Spin= Alpha
Occup=    0.00000
   1         0.00421960
   2        -0.02231850
   3         0.13683314
   4        -0.17560854
   5        -0.11448587
   6         0.00000000
   7        -0.29071606
   8        -0.32237381
   9         0.00000000
  10         0.01445884
  11        -0.01555674
  12        -0.00226308
  13        -0.00480551
  14         0.00000000
  15         0.00000000
  16         0.00421960
  17        -0.02231850
  18         0.13683314
  19         0.17560854
  20        -0.11448587
  21         0.00000000
  22         0.29071606
  23        -0.32237381
  24         0.00000000
  25         0.01445884
  26        -0.01555674
  27        -0.00226308
  28         0.00480551
  29         0.00000000
  30         0.00000000
  31        -0.00197128
  32        -0.02426730
  33         0.07399838
  34         0.15623105
  35         0.11092722
  36         0.00000000
  37         0.39200470
  38         0.04176379
  39         0.00000000
  40         0.01974782
  41        -0.02154755
  42        -0.00325659
  43        -0.00146790
  44         0.00000000
  45         0.00000000
  46        -0.00197128
  47        -0.02426730
  48         0.07399838
  49        -0.15623105
  50         0.11092722
  51         0.00000000
  52        -0.39200470
  53         0.04176379
  54         0.00000000
  55         0.01974782
  56        -0.02154755
  57        -0.00325659
  58         0.00146790
  59         0.00000000
  60         0.00000000
  61        -0.00005044
  62         0.03650941
  63        -0.00005044
  64         0.03650941
  65         0.04491124
  66        -0.07277087
  67        -0.73172702
  68         0.00927997
  69         0.06124280
  70         0.00000000
  71         0.25625313
  72         0.16321147
  73         0.00000000
  74        -0.01815577
  75         0.02309697
  76        -0.00031758
  77         0.01755387
  78         0.00000000
  79         0.00000000
  80         0.04491124
  81        -0.07277087
  82        -0.73172702
  83        -0.00927997
  84         0.06124280
  85         0.00000000
  86        -0.25625313
  87         0.16321147
  88         0.00000000
  89        -0.01815577
  90         0.02309697
  91        -0.00031758
  92        -0.01755387
  93         0.00000000
  94         0.00000000
  95         0.07355111
  96         0.78503550
  97         0.07355111
  98         0.78503550
Sym=    11a1 
Ene=     0.2705
Spin= Alpha
Occup=    0.00000
   1        -0.06718523
   2         0.13056285
   3        -0.71743552
   4        -0.08532363
   5         0.11759528
   6         0.00000000
   7        -1.28689477
   8         1.71147833
   9         0.00000000
  10        -0.00386702
  11        -0.01267043
  12         0.00756946
  13         0.01748680
  14         0.00000000
  15         0.00000000
  16        -0.06718523
  17         0.13056285
  18        -0.71743552
  19         0.08532363
  20         0.11759528
  21         0.00000000
  22         1.28689477