[Molden Format]
[N_Atoms]
                   10
[Atoms] (AU)
C1          1      6          -4.17334117      1.98618035      0.00000000
C1          2      6           4.17334117      1.98618035      0.00000000
C2          3      6          -2.81680496      0.19716478      0.00000000
C2          4      6           2.81680496      0.19716478      0.00000000
H3          5      1           5.35837138      3.59381466      0.00000000
H3          6      1          -5.35837138      3.59381466      0.00000000
C4          7      6          -1.25521675     -2.01758573      0.00000000
C4          8      6           1.25521675     -2.01758573      0.00000000
H5          9      1          -2.23214146     -3.79902477      0.00000000
H5         10      1           2.23214146     -3.79902477      0.00000000
[Charge] (Mulliken)
  -1.0140126657961837     
  -1.0140126657961837     
  0.30397324851989005     
  0.30397324851989005     
  0.59521745156680672     
  0.59521745156680672     
 -0.34856823737148090     
 -0.34856823737148090     
  0.46339020308086454     
  0.46339020308086454     
[GTO] (AU)
   1
   s   6
  3.047524880E+03  1.834737132E-03
  4.573695180E+02  1.403732281E-02
  1.039486850E+02  6.884262227E-02
  2.921015530E+01  2.321844432E-01
  9.286662960E+00  4.679413484E-01
  3.163926960E+00  3.623119853E-01
   s   3
  7.868272350E+00 -1.193324198E-01
  1.881288540E+00 -1.608541517E-01
  5.442492580E-01  1.143456438E+00
   s   1
  1.687144782E-01  1.000000000E+00
   p   3
  7.868272350E+00  6.899906659E-02
  1.881288540E+00  3.164239610E-01
  5.442492580E-01  7.443082909E-01
   p   1
  1.687144782E-01  1.000000000E+00
   d   1
  8.000000000E-01  1.000000000E+00
 
   2
   s   6
  3.047524880E+03  1.834737132E-03
  4.573695180E+02  1.403732281E-02
  1.039486850E+02  6.884262227E-02
  2.921015530E+01  2.321844432E-01
  9.286662960E+00  4.679413484E-01
  3.163926960E+00  3.623119853E-01
   s   3
  7.868272350E+00 -1.193324198E-01
  1.881288540E+00 -1.608541517E-01
  5.442492580E-01  1.143456438E+00
   s   1
  1.687144782E-01  1.000000000E+00
   p   3
  7.868272350E+00  6.899906659E-02
  1.881288540E+00  3.164239610E-01
  5.442492580E-01  7.443082909E-01
   p   1
  1.687144782E-01  1.000000000E+00
   d   1
  8.000000000E-01  1.000000000E+00
 
   3
   s   6
  3.047524880E+03  1.834737132E-03
  4.573695180E+02  1.403732281E-02
  1.039486850E+02  6.884262227E-02
  2.921015530E+01  2.321844432E-01
  9.286662960E+00  4.679413484E-01
  3.163926960E+00  3.623119853E-01
   s   3
  7.868272350E+00 -1.193324198E-01
  1.881288540E+00 -1.608541517E-01
  5.442492580E-01  1.143456438E+00
   s   1
  1.687144782E-01  1.000000000E+00
   p   3
  7.868272350E+00  6.899906659E-02
  1.881288540E+00  3.164239610E-01
  5.442492580E-01  7.443082909E-01
   p   1
  1.687144782E-01  1.000000000E+00
   d   1
  8.000000000E-01  1.000000000E+00
 
   4
   s   6
  3.047524880E+03  1.834737132E-03
  4.573695180E+02  1.403732281E-02
  1.039486850E+02  6.884262227E-02
  2.921015530E+01  2.321844432E-01
  9.286662960E+00  4.679413484E-01
  3.163926960E+00  3.623119853E-01
   s   3
  7.868272350E+00 -1.193324198E-01
  1.881288540E+00 -1.608541517E-01
  5.442492580E-01  1.143456438E+00
   s   1
  1.687144782E-01  1.000000000E+00
   p   3
  7.868272350E+00  6.899906659E-02
  1.881288540E+00  3.164239610E-01
  5.442492580E-01  7.443082909E-01
   p   1
  1.687144782E-01  1.000000000E+00
   d   1
  8.000000000E-01  1.000000000E+00
 
   5
   s   3
  1.873113696E+01  3.349460434E-02
  2.825394365E+00  2.347269535E-01
  6.401216923E-01  8.137573261E-01
   s   1
  1.612777588E-01  1.000000000E+00
 
   6
   s   3
  1.873113696E+01  3.349460434E-02
  2.825394365E+00  2.347269535E-01
  6.401216923E-01  8.137573261E-01
   s   1
  1.612777588E-01  1.000000000E+00
 
   7
   s   6
  3.047524880E+03  1.834737132E-03
  4.573695180E+02  1.403732281E-02
  1.039486850E+02  6.884262227E-02
  2.921015530E+01  2.321844432E-01
  9.286662960E+00  4.679413484E-01
  3.163926960E+00  3.623119853E-01
   s   3
  7.868272350E+00 -1.193324198E-01
  1.881288540E+00 -1.608541517E-01
  5.442492580E-01  1.143456438E+00
   s   1
  1.687144782E-01  1.000000000E+00
   p   3
  7.868272350E+00  6.899906659E-02
  1.881288540E+00  3.164239610E-01
  5.442492580E-01  7.443082909E-01
   p   1
  1.687144782E-01  1.000000000E+00
   d   1
  8.000000000E-01  1.000000000E+00
 
   8
   s   6
  3.047524880E+03  1.834737132E-03
  4.573695180E+02  1.403732281E-02
  1.039486850E+02  6.884262227E-02
  2.921015530E+01  2.321844432E-01
  9.286662960E+00  4.679413484E-01
  3.163926960E+00  3.623119853E-01
   s   3
  7.868272350E+00 -1.193324198E-01
  1.881288540E+00 -1.608541517E-01
  5.442492580E-01  1.143456438E+00
   s   1
  1.687144782E-01  1.000000000E+00
   p   3
  7.868272350E+00  6.899906659E-02
  1.881288540E+00  3.164239610E-01
  5.442492580E-01  7.443082909E-01
   p   1
  1.687144782E-01  1.000000000E+00
   d   1
  8.000000000E-01  1.000000000E+00
 
   9
   s   3
  1.873113696E+01  3.349460434E-02
  2.825394365E+00  2.347269535E-01
  6.401216923E-01  8.137573261E-01
   s   1
  1.612777588E-01  1.000000000E+00
 
  10
   s   3
  1.873113696E+01  3.349460434E-02
  2.825394365E+00  2.347269535E-01
  6.401216923E-01  8.137573261E-01
   s   1
  1.612777588E-01  1.000000000E+00
 
[MO]
Sym=     1a1 
Ene=   -11.2710
Spin= Alpha
Occup=    2.00000
   1         0.00023648
   2         0.00024745
   3        -0.00319354
   4         0.00009612
   5        -0.00008760
   6         0.00000000
   7        -0.00142227
   8         0.00182694
   9         0.00000000
  10         0.00006579
  11         0.00005596
  12         0.00000492
  13        -0.00006286
  14         0.00000000
  15         0.00000000
  16         0.00023648
  17         0.00024745
  18        -0.00319354
  19        -0.00009612
  20        -0.00008760
  21         0.00000000
  22         0.00142227
  23         0.00182694
  24         0.00000000
  25         0.00006579
  26         0.00005596
  27         0.00000492
  28         0.00006286
  29         0.00000000
  30         0.00000000
  31         0.00832265
  32         0.00014174
  33         0.00514303
  34        -0.00002945
  35         0.00008162
  36         0.00000000
  37        -0.00088651
  38         0.00120776
  39         0.00000000
  40        -0.00025329
  41        -0.00055251
  42        -0.00015202
  43         0.00019610
  44         0.00000000
  45         0.00000000
  46         0.00832265
  47         0.00014174
  48         0.00514303
  49         0.00002945
  50         0.00008162
  51         0.00000000
  52         0.00088651
  53         0.00120776
  54         0.00000000
  55        -0.00025329
  56        -0.00055251
  57        -0.00015202
  58        -0.00019610
  59         0.00000000
  60         0.00000000
  61        -0.00011024
  62        -0.00068014
  63        -0.00011024
  64        -0.00068014
  65         0.70372048
  66         0.01928191
  67        -0.00509170
  68        -0.00031972
  69         0.00037017
  70         0.00000000
  71         0.00074781
  72        -0.00010641
  73         0.00000000
  74        -0.00120059
  75        -0.00148131
  76        -0.00178261
  77        -0.00008667
  78         0.00000000
  79         0.00000000
  80         0.70372048
  81         0.01928191
  82        -0.00509170
  83         0.00031972
  84         0.00037017
  85         0.00000000
  86        -0.00074781
  87        -0.00010641
  88         0.00000000
  89        -0.00120059
  90        -0.00148131
  91        -0.00178261
  92         0.00008667
  93         0.00000000
  94         0.00000000
  95        -0.00008019
  96         0.00136718
  97        -0.00008019
  98         0.00136718
Sym=     2a1 
Ene=   -11.2360
Spin= Alpha
Occup=    2.00000
   1         0.22853654
   2         0.00542425
   3         0.00054261
   4        -0.00025240
   5         0.00031643
   6         0.00000000
   7         0.00060075
   8        -0.00096656
   9         0.00000000
  10        -0.00059766
  11        -0.00036664
  12        -0.00081686
  13        -0.00035580
  14         0.00000000
  15         0.00000000
  16         0.22853654
  17         0.00542425
  18         0.00054261
  19         0.00025240
  20         0.00031643
  21         0.00000000
  22        -0.00060075
  23        -0.00096656
  24         0.00000000
  25        -0.00059766
  26        -0.00036664
  27        -0.00081686
  28         0.00035580
  29         0.00000000
  30         0.00000000
  31         0.66535630
  32         0.01784500
  33        -0.00547649
  34         0.00002736
  35        -0.00021368
  36         0.00000000
  37        -0.00002297
  38         0.00049156
  39         0.00000000
  40        -0.00134396
  41        -0.00076085
  42        -0.00203670
  43        -0.00106083
  44         0.00000000
  45         0.00000000
  46         0.66535630
  47         0.01784500
  48        -0.00547649
  49        -0.00002736
  50        -0.00021368
  51         0.00000000
  52         0.00002297
  53         0.00049156
  54         0.00000000
  55        -0.00134396
  56        -0.00076085
  57        -0.00203670
  58         0.00106083
  59         0.00000000
  60         0.00000000
  61        -0.00030111
  62         0.00063426
  63        -0.00030111
  64         0.00063426
  65        -0.00826597
  66        -0.00023077
  67         0.00185769
  68         0.00032652
  69        -0.00049915
  70         0.00000000
  71        -0.00048937
  72         0.00059255
  73         0.00000000
  74        -0.00032483
  75        -0.00061318
  76        -0.00016653
  77         0.00038658
  78         0.00000000
  79         0.00000000
  80        -0.00826597
  81        -0.00023077
  82         0.00185769
  83        -0.00032652
  84        -0.00049915
  85         0.00000000
  86         0.00048937
  87         0.00059255
  88         0.00000000
  89        -0.00032483
  90        -0.00061318
  91        -0.00016653
  92        -0.00038658
  93         0.00000000
  94         0.00000000
  95        -0.00008105
  96         0.00010651
  97        -0.00008105
  98         0.00010651
Sym=     3a1 
Ene=   -11.2300
Spin= Alpha
Occup=    2.00000
   1        -0.66577577
   2        -0.01845603
   3         0.01031975
   4        -0.00013646
   5         0.00016488
   6         0.00000000
   7         0.00193818
   8        -0.00261824
   9         0.00000000
  10         0.00141657
  11         0.00108249
  12         0.00187227
  13         0.00068180
  14         0.00000000
  15         0.00000000
  16        -0.66577577
  17        -0.01845603
  18         0.01031975
  19         0.00013646
  20         0.00016488
  21         0.00000000
  22        -0.00193818
  23        -0.00261824
  24         0.00000000
  25         0.00141657
  26         0.00108249
  27         0.00187227
  28        -0.00068180
  29         0.00000000
  30         0.00000000
  31         0.22955192
  32         0.00704923
  33        -0.00849157
  34        -0.00020257
  35         0.00019918
  36         0.00000000
  37         0.00218363
  38        -0.00271439
  39         0.00000000
  40        -0.00044510
  41        -0.00038690
  42        -0.00049449
  43        -0.00008042
  44         0.00000000
  45         0.00000000
  46         0.22955192
  47         0.00704923
  48        -0.00849157
  49         0.00020257
  50         0.00019918
  51         0.00000000
  52        -0.00218363
  53        -0.00271439
  54         0.00000000
  55        -0.00044510
  56        -0.00038690
  57        -0.00049449
  58         0.00008042
  59         0.00000000
  60         0.00000000
  61         0.00060638
  62        -0.00048753
  63         0.00060638
  64        -0.00048753
  65        -0.00264134
  66        -0.00014735
  67        -0.00001548
  68         0.00003565
  69        -0.00008487
  70         0.00000000
  71        -0.00011418
  72         0.00009674
  73         0.00000000
  74        -0.00005905
  75        -0.00009165
  76        -0.00005980
  77         0.00003546
  78         0.00000000
  79         0.00000000
  80        -0.00264134
  81        -0.00014735
  82        -0.00001548
  83        -0.00003565
  84        -0.00008487
  85         0.00000000
  86         0.00011418
  87         0.00009674
  88         0.00000000
  89        -0.00005905
  90        -0.00009165
  91        -0.00005980
  92        -0.00003546
  93         0.00000000
  94         0.00000000
  95        -0.00004005
  96         0.00006678
  97        -0.00004005
  98         0.00006678
Sym=     4a1 
Ene=    -1.1161
Spin= Alpha
Occup=    2.00000
   1        -0.04351778
   2         0.07655202
   3         0.10692491
   4         0.02846155
   5        -0.03572299
   6         0.00000000
   7         0.01973664
   8        -0.02555913
   9         0.00000000
  10         0.00035049
  11         0.00189044
  12        -0.00246061
  13        -0.00389572
  14         0.00000000
  15         0.00000000
  16        -0.04351778
  17         0.07655202
  18         0.10692491
  19        -0.02846155
  20        -0.03572299
  21         0.00000000
  22        -0.01973664
  23        -0.02555913
  24         0.00000000
  25         0.00035049
  26         0.00189044
  27        -0.00246061
  28         0.00389572
  29         0.00000000
  30         0.00000000
  31        -0.08502759
  32         0.16220891
  33         0.05974092
  34         0.02378610
  35        -0.02475917
  36         0.00000000
  37         0.03551933
  38        -0.04547409
  39         0.00000000
  40         0.00330946
  41         0.00926800
  42        -0.00657383
  43        -0.01415489
  44         0.00000000
  45         0.00000000
  46        -0.08502759
  47         0.16220891
  48         0.05974092
  49        -0.02378610
  50        -0.02475917
  51         0.00000000
  52        -0.03551933
  53        -0.04547409
  54         0.00000000
  55         0.00330946
  56         0.00926800
  57        -0.00657383
  58         0.01415489
  59         0.00000000
  60         0.00000000
  61         0.01451331
  62         0.00689948
  63         0.01451331
  64         0.00689948
  65        -0.13600034
  66         0.26353692
  67         0.15255102
  68         0.06578632
  69         0.02973505
  70         0.00000000
  71         0.00885193
  72        -0.01093521
  73         0.00000000
  74         0.01327433
  75         0.00408807
  76        -0.01108378
  77        -0.00000251
  78         0.00000000
  79         0.00000000
  80        -0.13600034
  81         0.26353692
  82         0.15255102
  83        -0.06578632
  84         0.02973505
  85         0.00000000
  86        -0.00885193
  87        -0.01093521
  88         0.00000000
  89         0.01327433
  90         0.00408807
  91        -0.01108378
  92         0.00000251
  93         0.00000000
  94         0.00000000
  95         0.06468923
  96         0.00374369
  97         0.06468923
  98         0.00374369
Sym=     5a1 
Ene=    -0.9987
Spin= Alpha
Occup=    2.00000
   1         0.11844395
   2        -0.21746972
   3        -0.18334646
   4        -0.05998046
   5         0.08031765
   6         0.00000000
   7         0.00077200
   8        -0.00273177
   9         0.00000000
  10        -0.00149429
  11        -0.00976676
  12         0.00929292
  13         0.01633869
  14         0.00000000
  15         0.00000000
  16         0.11844395
  17        -0.21746972
  18        -0.18334646
  19         0.05998046
  20         0.08031765
  21         0.00000000
  22        -0.00077200
  23        -0.00273177
  24         0.00000000
  25        -0.00149429
  26        -0.00976676
  27         0.00929292
  28        -0.01633869
  29         0.00000000
  30         0.00000000
  31         0.08874590
  32        -0.15781821
  33        -0.12949189
  34         0.09758040
  35        -0.12479865
  36         0.00000000
  37        -0.00583005
  38         0.01396235
  39         0.00000000
  40         0.00247194
  41        -0.00032937
  42         0.00527464
  43         0.00421235
  44         0.00000000
  45         0.00000000
  46         0.08874590
  47        -0.15781821
  48        -0.12949189
  49        -0.09758040
  50        -0.12479865
  51         0.00000000
  52         0.00583005
  53         0.01396235
  54         0.00000000
  55         0.00247194
  56        -0.00032937
  57         0.00527464
  58        -0.00421235
  59         0.00000000
  60         0.00000000
  61        -0.05178097
  62        -0.00044393
  63        -0.05178097
  64        -0.00044393
  65        -0.07352063
  66         0.13957414
  67         0.14134406
  68         0.08258574
  69        -0.03562685
  70         0.00000000
  71         0.00238806
  72         0.00163510
  73         0.00000000
  74         0.00759793
  75        -0.00224758
  76        -0.00607217
  77         0.00477725
  78         0.00000000
  79         0.00000000
  80        -0.07352063
  81         0.13957414
  82         0.14134406
  83        -0.08258574
  84        -0.03562685
  85         0.00000000
  86        -0.00238806
  87         0.00163510
  88         0.00000000
  89         0.00759793
  90        -0.00224758
  91        -0.00607217
  92        -0.00477725
  93         0.00000000
  94         0.00000000
  95         0.04614319
  96         0.01156156
  97         0.04614319
  98         0.01156156
Sym=     6a1 
Ene=    -0.7503
Spin= Alpha
Occup=    2.00000
   1        -0.06775907
   2         0.13771231
   3         0.09369577
   4        -0.09181228
   5         0.11848207
   6         0.00000000
   7        -0.05704507
   8         0.07037072
   9         0.00000000
  10         0.00425350
  11         0.01356166
  12        -0.00569914
  13        -0.01616942
  14         0.00000000
  15         0.00000000
  16        -0.06775907
  17         0.13771231
  18         0.09369577
  19         0.09181228
  20         0.11848207
  21         0.00000000
  22         0.05704507
  23         0.07037072
  24         0.00000000
  25         0.00425350
  26         0.01356166
  27        -0.00569914
  28         0.01616942
  29         0.00000000
  30         0.00000000
  31         0.06935307
  32        -0.14376633
  33        -0.06846593
  34        -0.06677763
  35         0.08046600
  36         0.00000000
  37        -0.03548054
  38         0.04972608
  39         0.00000000
  40        -0.00219186
  41        -0.00871817
  42         0.00564834
  43         0.01236203
  44         0.00000000
  45         0.00000000
  46         0.06935307
  47        -0.14376633
  48        -0.06846593
  49         0.06677763
  50         0.08046600
  51         0.00000000
  52         0.03548054
  53         0.04972608
  54         0.00000000
  55        -0.00219186
  56        -0.00871817
  57         0.00564834
  58        -0.01236203
  59         0.00000000
  60         0.00000000
  61         0.14684442
  62         0.06430298
  63         0.14684442
  64         0.06430298
  65        -0.02125078
  66         0.04116154
  67         0.04864289
  68         0.13103508
  69        -0.19356838
  70         0.00000000
  71         0.02941132
  72        -0.06503215
  73         0.00000000
  74         0.00598015
  75        -0.00334607
  76        -0.00061576
  77         0.00809765
  78         0.00000000
  79         0.00000000
  80        -0.02125078
  81         0.04116154
  82         0.04864289
  83        -0.13103508
  84        -0.19356838
  85         0.00000000
  86        -0.02941132
  87        -0.06503215
  88         0.00000000
  89         0.00598015
  90        -0.00334607
  91        -0.00061576
  92        -0.00809765
  93         0.00000000
  94         0.00000000
  95         0.07373810
  96         0.03608126
  97         0.07373810
  98         0.03608126
Sym=     7a1 
Ene=    -0.6829
Spin= Alpha
Occup=    2.00000
   1        -0.00912881
   2         0.02939107
   3        -0.07605416
   4        -0.12703374
   5         0.20063920
   6         0.00000000
   7        -0.07809709
   8         0.12015698
   9         0.00000000
  10         0.00652686
  11         0.00642084
  12         0.00011119
  13        -0.00763044
  14         0.00000000
  15         0.00000000
  16        -0.00912881
  17         0.02939107
  18        -0.07605416
  19         0.12703374
  20         0.20063920
  21         0.00000000
  22         0.07809709
  23         0.12015698
  24         0.00000000
  25         0.00652686
  26         0.00642084
  27         0.00011119
  28         0.00763044
  29         0.00000000
  30         0.00000000
  31         0.01103270
  32        -0.01551154
  33         0.07476016
  34         0.15236554
  35        -0.13735667
  36         0.00000000
  37        -0.03625774
  38         0.06802903
  39         0.00000000
  40         0.00315796
  41        -0.00079307
  42         0.00198663
  43        -0.00019400
  44         0.00000000
  45         0.00000000
  46         0.01103270
  47        -0.01551154
  48         0.07476016
  49        -0.15236554
  50        -0.13735667
  51         0.00000000
  52         0.03625774
  53         0.06802903
  54         0.00000000
  55         0.00315796
  56        -0.00079307
  57         0.00198663
  58         0.00019400
  59         0.00000000
  60         0.00000000
  61         0.14251107
  62         0.07177303
  63         0.14251107
  64         0.07177303
  65        -0.00175881
  66         0.00163274
  67         0.05635177
  68         0.02769186
  69         0.23326008
  70         0.00000000
  71         0.00124930
  72         0.11820315
  73         0.00000000
  74         0.00019308
  75        -0.00328574
  76        -0.00058303
  77        -0.00749259
  78         0.00000000
  79         0.00000000
  80        -0.00175881
  81         0.00163274
  82         0.05635177
  83        -0.02769186
  84         0.23326008
  85         0.00000000
  86        -0.00124930
  87         0.11820315
  88         0.00000000
  89         0.00019308
  90        -0.00328574
  91        -0.00058303
  92         0.00749259
  93         0.00000000
  94         0.00000000
  95        -0.12143879
  96        -0.06707947
  97        -0.12143879
  98        -0.06707947
Sym=     8a1 
Ene=    -0.6484
Spin= Alpha
Occup=    2.00000
   1        -0.00715639
   2         0.00687409
   3         0.07625867
   4         0.10310789
   5        -0.07124829
   6         0.00000000
   7         0.06446990
   8        -0.05059031
   9         0.00000000
  10         0.00218955
  11        -0.00765326
  12        -0.00109825
  13         0.00043623
  14         0.00000000
  15         0.00000000
  16        -0.00715639
  17         0.00687409
  18         0.07625867
  19        -0.10310789
  20        -0.07124829
  21         0.00000000
  22        -0.06446990
  23        -0.05059031
  24         0.00000000
  25         0.00218955
  26        -0.00765326
  27        -0.00109825
  28        -0.00043623
  29         0.00000000
  30         0.00000000
  31         0.01081395
  32        -0.02550113
  33        -0.08372128
  34        -0.02530316
  35         0.17189271
  36         0.00000000
  37         0.04513410
  38        -0.01399605
  39         0.00000000
  40         0.00491393
  41        -0.00582606
  42         0.00024168
  43        -0.00146037
  44         0.00000000
  45         0.00000000
  46         0.01081395
  47        -0.02550113
  48        -0.08372128
  49         0.02530316
  50         0.17189271
  51         0.00000000
  52        -0.04513410
  53        -0.01399605
  54         0.00000000
  55         0.00491393
  56        -0.00582606
  57         0.00024168
  58         0.00146037
  59         0.00000000
  60         0.00000000
  61        -0.06113277
  62        -0.03155372
  63        -0.06113277
  64        -0.03155372
  65        -0.01001230
  66         0.02473287
  67        -0.05643733
  68         0.37165167
  69         0.06096073
  70         0.00000000
  71         0.14065923
  72         0.01471990
  73         0.00000000
  74         0.00863559
  75        -0.02045935
  76         0.00151978
  77         0.00179314
  78         0.00000000
  79         0.00000000
  80        -0.01001230
  81         0.02473287
  82        -0.05643733
  83        -0.37165167
  84         0.06096073
  85         0.00000000
  86        -0.14065923
  87         0.01471990
  88         0.00000000
  89         0.00863559
  90        -0.02045935
  91         0.00151978
  92        -0.00179314
  93         0.00000000
  94         0.00000000
  95        -0.12582186
  96        -0.08858604
  97        -0.12582186
  98        -0.08858604
Sym=     9a1 
Ene=    -0.4000
Spin= Alpha
Occup=    2.00000
   1         0.00269267
   2        -0.00671005
   3         0.01497659
   4         0.21667606
   5         0.17064930
   6         0.00000000
   7         0.15977135
   8         0.10441450
   9         0.00000000
  10         0.01470813
  11        -0.01455424
  12        -0.00042074
  13        -0.00496752
  14         0.00000000
  15         0.00000000
  16         0.00269267
  17        -0.00671005
  18         0.01497659
  19        -0.21667606
  20         0.17064930
  21         0.00000000
  22        -0.15977135
  23         0.10441450
  24         0.00000000
  25         0.01470813
  26        -0.01455424
  27        -0.00042074
  28         0.00496752
  29         0.00000000
  30         0.00000000
  31        -0.00188685
  32         0.00153462
  33         0.00605690
  34         0.21769854
  35         0.15298533
  36         0.00000000
  37         0.16436755
  38         0.08986379
  39         0.00000000
  40        -0.01746957
  41         0.01628557
  42        -0.00033721
  43         0.00691634
  44         0.00000000
  45         0.00000000
  46        -0.00188685
  47         0.00153462
  48         0.00605690
  49        -0.21769854
  50         0.15298533
  51         0.00000000
  52        -0.16436755
  53         0.08986379
  54         0.00000000
  55        -0.01746957
  56         0.01628557
  57        -0.00033721
  58        -0.00691634
  59         0.00000000
  60         0.00000000
  61         0.00225550
  62         0.00673587
  63         0.00225550
  64         0.00673587
  65         0.01222199
  66        -0.02787294
  67        -0.04025643
  68        -0.10189886
  69        -0.04959597
  70         0.00000000
  71        -0.04306893
  72        -0.03691063
  73         0.00000000
  74        -0.01164468
  75         0.01593769
  76        -0.00046618
  77         0.00612484
  78         0.00000000
  79         0.00000000
  80         0.01222199
  81        -0.02787294
  82        -0.04025643
  83         0.10189886
  84        -0.04959597
  85         0.00000000
  86         0.04306893
  87        -0.03691063
  88         0.00000000
  89        -0.01164468
  90         0.01593769
  91        -0.00046618
  92        -0.00612484
  93         0.00000000
  94         0.00000000
  95         0.06740960
  96         0.07549634
  97         0.06740960
  98         0.07549634
Sym=    10a1 
Ene=     0.1933
Spin= Alpha
Occup=    0.00000
   1         0.00421959
   2        -0.02231849
   3         0.13683316
   4        -0.17560853
   5        -0.11448587
   6         0.00000000
   7        -0.29071605
   8        -0.32237376
   9         0.00000000
  10         0.01445884
  11        -0.01555674
  12        -0.00226308
  13        -0.00480551
  14         0.00000000
  15         0.00000000
  16         0.00421959
  17        -0.02231849
  18         0.13683316
  19         0.17560853
  20        -0.11448587
  21         0.00000000
  22         0.29071605
  23        -0.32237376
  24         0.00000000
  25         0.01445884
  26        -0.01555674
  27        -0.00226308
  28         0.00480551
  29         0.00000000
  30         0.00000000
  31        -0.00197129
  32        -0.02426730
  33         0.07399844
  34         0.15623104
  35         0.11092722
  36         0.00000000
  37         0.39200469
  38         0.04176378
  39         0.00000000
  40         0.01974782
  41        -0.02154755
  42        -0.00325659
  43        -0.00146790
  44         0.00000000
  45         0.00000000
  46        -0.00197129
  47        -0.02426730
  48         0.07399844
  49        -0.15623104
  50         0.11092722
  51         0.00000000
  52        -0.39200469
  53         0.04176378
  54         0.00000000
  55         0.01974782
  56        -0.02154755
  57        -0.00325659
  58         0.00146790
  59         0.00000000
  60         0.00000000
  61        -0.00005045
  62         0.03650934
  63        -0.00005045
  64         0.03650934
  65         0.04491125
  66        -0.07277087
  67        -0.73172711
  68         0.00927998
  69         0.06124281
  70         0.00000000
  71         0.25625317
  72         0.16321149
  73         0.00000000
  74        -0.01815576
  75         0.02309697
  76        -0.00031758
  77         0.01755387
  78         0.00000000
  79         0.00000000
  80         0.04491125
  81        -0.07277087
  82        -0.73172711
  83        -0.00927998
  84         0.06124281
  85         0.00000000
  86        -0.25625317
  87         0.16321149
  88         0.00000000
  89        -0.01815576
  90         0.02309697
  91        -0.00031758
  92        -0.01755387
  93         0.00000000
  94         0.00000000
  95         0.07355111
  96         0.78503558
  97         0.07355111
  98         0.78503558
Sym=    11a1 
Ene=     0.2705
Spin= Alpha
Occup=    0.00000
   1        -0.06718523
   2         0.13056286
   3        -0.71743552
   4        -0.08532363
   5         0.11759528
   6         0.00000000
   7        -1.28689477
   8         1.71147831
   9         0.00000000
  10        -0.00386701
  11        -0.01267043
  12         0.00756946
  13         0.01748680
  14         0.00000000
  15         0.00000000
  16        -0.06718523
  17         0.13056286
  18        -0.71743552
  19         0.08532363
  20         0.11759528
  21         0.00000000
  22         1.28689477