[Molden Format]
[N_Atoms]
                   10
[Atoms] (AU)
C1          1      6          -4.17334117      1.98618035      0.00000000
C1          2      6           4.17334117      1.98618035      0.00000000
C2          3      6          -2.81680496      0.19716478      0.00000000
C2          4      6           2.81680496      0.19716478      0.00000000
H3          5      1           5.35837138      3.59381466      0.00000000
H3          6      1          -5.35837138      3.59381466      0.00000000
C4          7      6          -1.25521675     -2.01758573      0.00000000
C4          8      6           1.25521675     -2.01758573      0.00000000
H5          9      1          -2.23214146     -3.79902477      0.00000000
H5         10      1           2.23214146     -3.79902477      0.00000000
[Charge] (Mulliken)
 -0.99771541891281501     
 -0.99771541891281501     
  0.30378667618705180     
  0.30378667618705180     
  0.57406484606524355     
  0.57406484606524355     
 -0.31816890402752840     
 -0.31816890402752840     
  0.43803280068774786     
  0.43803280068774786     
[GTO] (AU)
   1
   s   6
  3.047524880E+03  1.834737132E-03
  4.573695180E+02  1.403732281E-02
  1.039486850E+02  6.884262227E-02
  2.921015530E+01  2.321844432E-01
  9.286662960E+00  4.679413484E-01
  3.163926960E+00  3.623119853E-01
   s   3
  7.868272350E+00 -1.193324198E-01
  1.881288540E+00 -1.608541517E-01
  5.442492580E-01  1.143456438E+00
   s   1
  1.687144782E-01  1.000000000E+00
   p   3
  7.868272350E+00  6.899906659E-02
  1.881288540E+00  3.164239610E-01
  5.442492580E-01  7.443082909E-01
   p   1
  1.687144782E-01  1.000000000E+00
   d   1
  8.000000000E-01  1.000000000E+00
 
   2
   s   6
  3.047524880E+03  1.834737132E-03
  4.573695180E+02  1.403732281E-02
  1.039486850E+02  6.884262227E-02
  2.921015530E+01  2.321844432E-01
  9.286662960E+00  4.679413484E-01
  3.163926960E+00  3.623119853E-01
   s   3
  7.868272350E+00 -1.193324198E-01
  1.881288540E+00 -1.608541517E-01
  5.442492580E-01  1.143456438E+00
   s   1
  1.687144782E-01  1.000000000E+00
   p   3
  7.868272350E+00  6.899906659E-02
  1.881288540E+00  3.164239610E-01
  5.442492580E-01  7.443082909E-01
   p   1
  1.687144782E-01  1.000000000E+00
   d   1
  8.000000000E-01  1.000000000E+00
 
   3
   s   6
  3.047524880E+03  1.834737132E-03
  4.573695180E+02  1.403732281E-02
  1.039486850E+02  6.884262227E-02
  2.921015530E+01  2.321844432E-01
  9.286662960E+00  4.679413484E-01
  3.163926960E+00  3.623119853E-01
   s   3
  7.868272350E+00 -1.193324198E-01
  1.881288540E+00 -1.608541517E-01
  5.442492580E-01  1.143456438E+00
   s   1
  1.687144782E-01  1.000000000E+00
   p   3
  7.868272350E+00  6.899906659E-02
  1.881288540E+00  3.164239610E-01
  5.442492580E-01  7.443082909E-01
   p   1
  1.687144782E-01  1.000000000E+00
   d   1
  8.000000000E-01  1.000000000E+00
 
   4
   s   6
  3.047524880E+03  1.834737132E-03
  4.573695180E+02  1.403732281E-02
  1.039486850E+02  6.884262227E-02
  2.921015530E+01  2.321844432E-01
  9.286662960E+00  4.679413484E-01
  3.163926960E+00  3.623119853E-01
   s   3
  7.868272350E+00 -1.193324198E-01
  1.881288540E+00 -1.608541517E-01
  5.442492580E-01  1.143456438E+00
   s   1
  1.687144782E-01  1.000000000E+00
   p   3
  7.868272350E+00  6.899906659E-02
  1.881288540E+00  3.164239610E-01
  5.442492580E-01  7.443082909E-01
   p   1
  1.687144782E-01  1.000000000E+00
   d   1
  8.000000000E-01  1.000000000E+00
 
   5
   s   3
  1.873113696E+01  3.349460434E-02
  2.825394365E+00  2.347269535E-01
  6.401216923E-01  8.137573261E-01
   s   1
  1.612777588E-01  1.000000000E+00
 
   6
   s   3
  1.873113696E+01  3.349460434E-02
  2.825394365E+00  2.347269535E-01
  6.401216923E-01  8.137573261E-01
   s   1
  1.612777588E-01  1.000000000E+00
 
   7
   s   6
  3.047524880E+03  1.834737132E-03
  4.573695180E+02  1.403732281E-02
  1.039486850E+02  6.884262227E-02
  2.921015530E+01  2.321844432E-01
  9.286662960E+00  4.679413484E-01
  3.163926960E+00  3.623119853E-01
   s   3
  7.868272350E+00 -1.193324198E-01
  1.881288540E+00 -1.608541517E-01
  5.442492580E-01  1.143456438E+00
   s   1
  1.687144782E-01  1.000000000E+00
   p   3
  7.868272350E+00  6.899906659E-02
  1.881288540E+00  3.164239610E-01
  5.442492580E-01  7.443082909E-01
   p   1
  1.687144782E-01  1.000000000E+00
   d   1
  8.000000000E-01  1.000000000E+00
 
   8
   s   6
  3.047524880E+03  1.834737132E-03
  4.573695180E+02  1.403732281E-02
  1.039486850E+02  6.884262227E-02
  2.921015530E+01  2.321844432E-01
  9.286662960E+00  4.679413484E-01
  3.163926960E+00  3.623119853E-01
   s   3
  7.868272350E+00 -1.193324198E-01
  1.881288540E+00 -1.608541517E-01
  5.442492580E-01  1.143456438E+00
   s   1
  1.687144782E-01  1.000000000E+00
   p   3
  7.868272350E+00  6.899906659E-02
  1.881288540E+00  3.164239610E-01
  5.442492580E-01  7.443082909E-01
   p   1
  1.687144782E-01  1.000000000E+00
   d   1
  8.000000000E-01  1.000000000E+00
 
   9
   s   3
  1.873113696E+01  3.349460434E-02
  2.825394365E+00  2.347269535E-01
  6.401216923E-01  8.137573261E-01
   s   1
  1.612777588E-01  1.000000000E+00
 
  10
   s   3
  1.873113696E+01  3.349460434E-02
  2.825394365E+00  2.347269535E-01
  6.401216923E-01  8.137573261E-01
   s   1
  1.612777588E-01  1.000000000E+00
 
[MO]
Sym=     1a1 
Ene=   -11.2490
Spin= Alpha
Occup=    2.00000
   1         0.00021172
   2         0.00025938
   3        -0.00298212
   4         0.00011237
   5        -0.00009739
   6         0.00000000
   7        -0.00135407
   8         0.00172577
   9         0.00000000
  10         0.00006767
  11         0.00004880
  12         0.00000482
  13        -0.00006155
  14         0.00000000
  15         0.00000000
  16         0.00021172
  17         0.00025938
  18        -0.00298212
  19        -0.00011237
  20        -0.00009739
  21         0.00000000
  22         0.00135407
  23         0.00172577
  24         0.00000000
  25         0.00006767
  26         0.00004880
  27         0.00000482
  28         0.00006155
  29         0.00000000
  30         0.00000000
  31         0.00762025
  32         0.00005450
  33         0.00490587
  34        -0.00002512
  35         0.00021032
  36         0.00000000
  37        -0.00080170
  38         0.00110839
  39         0.00000000
  40        -0.00023197
  41        -0.00055110
  42        -0.00015009
  43         0.00018251
  44         0.00000000
  45         0.00000000
  46         0.00762025
  47         0.00005450
  48         0.00490587
  49         0.00002512
  50         0.00021032
  51         0.00000000
  52         0.00080170
  53         0.00110839
  54         0.00000000
  55        -0.00023197
  56        -0.00055110
  57        -0.00015009
  58        -0.00018251
  59         0.00000000
  60         0.00000000
  61        -0.00011088
  62        -0.00065866
  63        -0.00011088
  64        -0.00065866
  65         0.70345541
  66         0.02006389
  67        -0.00493164
  68         0.00047672
  69         0.00039102
  70         0.00000000
  71         0.00100344
  72        -0.00010882
  73         0.00000000
  74        -0.00127495
  75        -0.00163467
  76        -0.00187231
  77        -0.00007474
  78         0.00000000
  79         0.00000000
  80         0.70345541
  81         0.02006389
  82        -0.00493164
  83        -0.00047672
  84         0.00039102
  85         0.00000000
  86        -0.00100344
  87        -0.00010882
  88         0.00000000
  89        -0.00127495
  90        -0.00163467
  91        -0.00187231
  92         0.00007474
  93         0.00000000
  94         0.00000000
  95        -0.00016439
  96         0.00124173
  97        -0.00016439
  98         0.00124173
Sym=     2a1 
Ene=   -11.2120
Spin= Alpha
Occup=    2.00000
   1         0.26142277
   2         0.00650171
   3         0.00034142
   4        -0.00025248
   5         0.00029110
   6         0.00000000
   7         0.00055885
   8        -0.00092532
   9         0.00000000
  10        -0.00073122
  11        -0.00049334
  12        -0.00095635
  13        -0.00036945
  14         0.00000000
  15         0.00000000
  16         0.26142277
  17         0.00650171
  18         0.00034142
  19         0.00025248
  20         0.00029110
  21         0.00000000
  22        -0.00055885
  23        -0.00092532
  24         0.00000000
  25        -0.00073122
  26        -0.00049334
  27        -0.00095635
  28         0.00036945
  29         0.00000000
  30         0.00000000
  31         0.65303529
  32         0.01789079
  33        -0.00518998
  34        -0.00003433
  35        -0.00014347
  36         0.00000000
  37         0.00005837
  38         0.00034820
  39         0.00000000
  40        -0.00144069
  41        -0.00087720
  42        -0.00212634
  43        -0.00103803
  44         0.00000000
  45         0.00000000
  46         0.65303529
  47         0.01789079
  48        -0.00518998
  49         0.00003433
  50        -0.00014347
  51         0.00000000
  52        -0.00005837
  53         0.00034820
  54         0.00000000
  55        -0.00144069
  56        -0.00087720
  57        -0.00212634
  58         0.00103803
  59         0.00000000
  60         0.00000000
  61        -0.00031972
  62         0.00065528
  63        -0.00031972
  64         0.00065528
  65        -0.00745149
  66        -0.00016270
  67         0.00168120
  68         0.00039659
  69        -0.00048077
  70         0.00000000
  71        -0.00041976
  72         0.00051550
  73         0.00000000
  74        -0.00030948
  75        -0.00059796
  76        -0.00016025
  77         0.00037417
  78         0.00000000
  79         0.00000000
  80        -0.00745149
  81        -0.00016270
  82         0.00168120
  83        -0.00039659
  84        -0.00048077
  85         0.00000000
  86         0.00041976
  87         0.00051550
  88         0.00000000
  89        -0.00030948
  90        -0.00059796
  91        -0.00016025
  92        -0.00037417
  93         0.00000000
  94         0.00000000
  95        -0.00008540
  96         0.00007629
  97        -0.00008540
  98         0.00007629
Sym=     3a1 
Ene=   -11.2070
Spin= Alpha
Occup=    2.00000
   1        -0.65349670
   2        -0.01856591
   3         0.01034513
   4        -0.00023104
   5         0.00022144
   6         0.00000000
   7         0.00198307
   8        -0.00272628
   9         0.00000000
  10         0.00149229
  11         0.00117335
  12         0.00193332
  13         0.00066464
  14         0.00000000
  15         0.00000000
  16        -0.65349670
  17        -0.01856591
  18         0.01034513
  19         0.00023104
  20         0.00022144
  21         0.00000000
  22        -0.00198307
  23        -0.00272628
  24         0.00000000
  25         0.00149229
  26         0.00117335
  27         0.00193332
  28        -0.00066464
  29         0.00000000
  30         0.00000000
  31         0.26242548
  32         0.00809022
  33        -0.00879918
  34        -0.00026554
  35         0.00022358
  36         0.00000000
  37         0.00216527
  38        -0.00270781
  39         0.00000000
  40        -0.00054020
  41        -0.00045239
  42        -0.00063847
  43        -0.00014712
  44         0.00000000
  45         0.00000000
  46         0.26242548
  47         0.00809022
  48        -0.00879918
  49         0.00026554
  50         0.00022358
  51         0.00000000
  52        -0.00216527
  53        -0.00270781
  54         0.00000000
  55        -0.00054020
  56        -0.00045239
  57        -0.00063847
  58         0.00014712
  59         0.00000000
  60         0.00000000
  61         0.00058607
  62        -0.00042106
  63         0.00058607
  64        -0.00042106
  65        -0.00280785
  66        -0.00011404
  67         0.00010132
  68         0.00011921
  69        -0.00010525
  70         0.00000000
  71        -0.00011745
  72         0.00012984
  73         0.00000000
  74        -0.00007116
  75        -0.00012742
  76        -0.00006994
  77         0.00005523
  78         0.00000000
  79         0.00000000
  80        -0.00280785
  81        -0.00011404
  82         0.00010132
  83        -0.00011921
  84        -0.00010525
  85         0.00000000
  86         0.00011745
  87         0.00012984
  88         0.00000000
  89        -0.00007116
  90        -0.00012742
  91        -0.00006994
  92        -0.00005523
  93         0.00000000
  94         0.00000000
  95        -0.00005509
  96         0.00005427
  97        -0.00005509
  98         0.00005427
Sym=     4a1 
Ene=    -1.0433
Spin= Alpha
Occup=    2.00000
   1        -0.09889391
   2         0.17725619
   3         0.17635905
   4         0.05848844
   5        -0.07515090
   6         0.00000000
   7         0.01519012
   8        -0.01571182
   9         0.00000000
  10         0.00101414
  11         0.00732144
  12        -0.00659146
  13        -0.01168574
  14         0.00000000
  15         0.00000000
  16        -0.09889391
  17         0.17725619
  18         0.17635905
  19        -0.05848844
  20        -0.07515090
  21         0.00000000
  22        -0.01519012
  23        -0.01571182
  24         0.00000000
  25         0.00101414
  26         0.00732144
  27        -0.00659146
  28         0.01168574
  29         0.00000000
  30         0.00000000
  31        -0.12778223
  32         0.23614226
  33         0.14522471
  34        -0.02991358
  35         0.03022766
  36         0.00000000
  37         0.03214563
  38        -0.04477876
  39         0.00000000
  40         0.00025110
  41         0.00980430
  42        -0.00833764
  43        -0.01384320
  44         0.00000000
  45         0.00000000
  46        -0.12778223
  47         0.23614226
  48         0.14522471
  49         0.02991358
  50         0.03022766
  51         0.00000000
  52        -0.03214563
  53        -0.04477876
  54         0.00000000
  55         0.00025110
  56         0.00980430
  57        -0.00833764
  58         0.01384320
  59         0.00000000
  60         0.00000000
  61         0.03725006
  62         0.00437164
  63         0.03725006
  64         0.00437164
  65        -0.05407863
  66         0.10452348
  67         0.03122446
  68        -0.07887682
  69         0.04346132
  70         0.00000000
  71        -0.02253904
  72        -0.01003599
  73         0.00000000
  74         0.00314326
  75         0.00887350
  76        -0.00471082
  77        -0.00345946
  78         0.00000000
  79         0.00000000
  80        -0.05407863
  81         0.10452348
  82         0.03122446
  83         0.07887682
  84         0.04346132
  85         0.00000000
  86         0.02253904
  87        -0.01003599
  88         0.00000000
  89         0.00314326
  90         0.00887350
  91        -0.00471082
  92         0.00345946
  93         0.00000000
  94         0.00000000
  95         0.04094801
  96         0.01233425
  97         0.04094801
  98         0.01233425
Sym=     5a1 
Ene=    -0.9014
Spin= Alpha
Occup=    2.00000
   1         0.08936688
   2        -0.16605523
   3        -0.13847810
   4        -0.02469819
   5         0.03985888
   6         0.00000000
   7         0.01464523
   8        -0.01088456
   9         0.00000000
  10        -0.00269141
  11        -0.00841759
  12         0.00722616
  13         0.01439178
  14         0.00000000
  15         0.00000000
  16         0.08936688
  17        -0.16605523
  18        -0.13847810
  19         0.02469819
  20         0.03985888
  21         0.00000000
  22        -0.01464523
  23        -0.01088456
  24         0.00000000
  25        -0.00269141
  26        -0.00841759
  27         0.00722616
  28        -0.01439178
  29         0.00000000
  30         0.00000000
  31        -0.00075780
  32         0.01388686
  33        -0.00907548
  34         0.11809771
  35        -0.17967169
  36         0.00000000
  37         0.02009094
  38        -0.01877458
  39         0.00000000
  40        -0.00018002
  41         0.01008394
  42        -0.00091356
  43        -0.00504196
  44         0.00000000
  45         0.00000000
  46        -0.00075780
  47         0.01388686
  48        -0.00907548
  49        -0.11809771
  50        -0.17967169
  51         0.00000000
  52        -0.02009094
  53        -0.01877458
  54         0.00000000
  55        -0.00018002
  56         0.01008394
  57        -0.00091356
  58         0.00504196
  59         0.00000000
  60         0.00000000
  61        -0.05509993
  62        -0.00662548
  63        -0.05509993
  64        -0.00662548
  65        -0.09675766
  66         0.18077016
  67         0.16521240
  68        -0.13960827
  69        -0.00351569
  70         0.00000000
  71        -0.07326672
  72        -0.00305297
  73         0.00000000
  74         0.00419257
  75         0.01276729
  76        -0.00909656
  77         0.00121430
  78         0.00000000
  79         0.00000000
  80        -0.09675766
  81         0.18077016
  82         0.16521240
  83         0.13960827
  84        -0.00351569
  85         0.00000000
  86         0.07326672
  87        -0.00305297
  88         0.00000000
  89         0.00419257
  90         0.01276729
  91        -0.00909656
  92        -0.00121430
  93         0.00000000
  94         0.00000000
  95         0.11209277
  96         0.05411589
  97         0.11209277
  98         0.05411589
Sym=     6a1 
Ene=    -0.7237
Spin= Alpha
Occup=    2.00000
   1        -0.05271532
   2         0.10849753
   3         0.05881492
   4        -0.09721143
   5         0.14409906
   6         0.00000000
   7        -0.05549835
   8         0.08492012
   9         0.00000000
  10         0.00422774
  11         0.01288589
  12        -0.00393972
  13        -0.01371729
  14         0.00000000
  15         0.00000000
  16        -0.05271532
  17         0.10849753
  18         0.05881492
  19         0.09721143
  20         0.14409906
  21         0.00000000
  22         0.05549835
  23         0.08492012
  24         0.00000000
  25         0.00422774
  26         0.01288589
  27        -0.00393972
  28         0.01371729
  29         0.00000000
  30         0.00000000
  31         0.05856142
  32        -0.11835942
  33        -0.04071800
  34        -0.02707967
  35         0.01763211
  36         0.00000000
  37        -0.02781495
  38         0.05238700
  39         0.00000000
  40        -0.00558865
  41        -0.00359751
  42         0.00448006
  43         0.01159963
  44         0.00000000
  45         0.00000000
  46         0.05856142
  47        -0.11835942
  48        -0.04071800
  49         0.02707967
  50         0.01763211
  51         0.00000000
  52         0.02781495
  53         0.05238700
  54         0.00000000
  55        -0.00558865
  56        -0.00359751
  57         0.00448006
  58        -0.01159963
  59         0.00000000
  60         0.00000000
  61         0.14807085
  62         0.07106845
  63         0.14807085
  64         0.07106845
  65        -0.02742997
  66         0.04996358
  67         0.07594556
  68        -0.02871271
  69        -0.21455914
  70         0.00000000
  71        -0.03133810
  72        -0.07593667
  73         0.00000000
  74         0.00214697
  75         0.00711551
  76        -0.00218303
  77         0.00783031
  78         0.00000000
  79         0.00000000
  80        -0.02742997
  81         0.04996358
  82         0.07594556
  83         0.02871271
  84        -0.21455914
  85         0.00000000
  86         0.03133810
  87        -0.07593667
  88         0.00000000
  89         0.00214697
  90         0.00711551
  91        -0.00218303
  92        -0.00783031
  93         0.00000000
  94         0.00000000
  95         0.13680525
  96         0.08209502
  97         0.13680525
  98         0.08209502
Sym=     7a1 
Ene=    -0.6700
Spin= Alpha
Occup=    2.00000
   1        -0.00737115
   2         0.02576843
   3        -0.08320590
   4        -0.15291092
   5         0.19557165
   6         0.00000000
   7        -0.09518697
   8         0.11784564
   9         0.00000000
  10         0.00500518
  11         0.00811375
  12         0.00048291
  13        -0.00678455
  14         0.00000000
  15         0.00000000
  16        -0.00737115
  17         0.02576843
  18        -0.08320590
  19         0.15291092
  20         0.19557165
  21         0.00000000
  22         0.09518697
  23         0.11784564
  24         0.00000000
  25         0.00500518
  26         0.00811375
  27         0.00048291
  28         0.00678455
  29         0.00000000
  30         0.00000000
  31         0.00909521
  32        -0.01139659
  33         0.08344731
  34         0.13920727
  35        -0.17108802
  36         0.00000000
  37        -0.04979514
  38         0.05797978
  39         0.00000000
  40         0.00341459
  41        -0.00112968
  42         0.00196511
  43        -0.00021115
  44         0.00000000
  45         0.00000000
  46         0.00909521
  47        -0.01139659
  48         0.08344731
  49        -0.13920727
  50        -0.17108802
  51         0.00000000
  52         0.04979514
  53         0.05797978
  54         0.00000000
  55         0.00341459
  56        -0.00112968
  57         0.00196511
  58         0.00021115
  59         0.00000000
  60         0.00000000
  61         0.14893789
  62         0.07787721
  63         0.14893789
  64         0.07787721
  65        -0.00237119
  66         0.00229831
  67         0.06693772
  68        -0.01991161
  69         0.22356624
  70         0.00000000
  71        -0.01667882
  72         0.11706326
  73         0.00000000
  74        -0.00009942
  75        -0.00143246
  76        -0.00079789
  77        -0.00791867
  78         0.00000000
  79         0.00000000
  80        -0.00237119
  81         0.00229831
  82         0.06693772
  83         0.01991161
  84         0.22356624
  85         0.00000000
  86         0.01667882
  87         0.11706326
  88         0.00000000
  89        -0.00009942
  90        -0.00143246
  91        -0.00079789
  92         0.00791867
  93         0.00000000
  94         0.00000000
  95        -0.10596255
  96        -0.06062314
  97        -0.10596255
  98        -0.06062314
Sym=     8a1 
Ene=    -0.7885
Spin= Alpha
Occup=    1.98362
   1        -0.00534501
   2         0.00839072
   3         0.06553344
   4         0.00655372
   5        -0.00887552
   6         0.00000000
   7         0.01740449
   8        -0.03347540
   9         0.00000000
  10         0.00119927
  11        -0.00192093
  12        -0.00026526
  13        -0.00042794
  14         0.00000000
  15         0.00000000
  16        -0.00534501
  17         0.00839072
  18         0.06553344
  19        -0.00655372
  20        -0.00887552
  21         0.00000000
  22        -0.01740449
  23        -0.03347540
  24         0.00000000
  25         0.00119927
  26        -0.00192093
  27        -0.00026526
  28         0.00042794
  29         0.00000000
  30         0.00000000
  31         0.01784526
  32        -0.03573423
  33        -0.09433296
  34        -0.00214068
  35         0.06207144
  36         0.00000000
  37         0.01828791
  38        -0.01933548
  39         0.00000000
  40         0.00781482
  41        -0.00387693
  42         0.00053626
  43        -0.00417718
  44         0.00000000
  45         0.00000000
  46         0.01784526
  47        -0.03573423
  48        -0.09433296
  49         0.00214068
  50         0.06207144
  51         0.00000000
  52        -0.01828791
  53        -0.01933548
  54         0.00000000
  55         0.00781482
  56        -0.00387693
  57         0.00053626
  58         0.00417718
  59         0.00000000
  60         0.00000000
  61        -0.00157348
  62         0.00467159
  63        -0.00157348
  64         0.00467159
  65        -0.10836556
  66         0.21590755
  67         0.10429469
  68         0.38735524
  69         0.02170255
  70         0.00000000
  71         0.11833480
  72         0.00203056
  73         0.00000000
  74         0.01553586
  75        -0.01835141
  76        -0.00625356
  77         0.00380992
  78         0.00000000
  79         0.00000000
  80        -0.10836556
  81         0.21590755
  82         0.10429469
  83        -0.38735524
  84         0.02170255
  85         0.00000000
  86        -0.11833480
  87         0.00203056
  88         0.00000000
  89         0.01553586
  90        -0.01835141
  91        -0.00625356
  92        -0.00380992
  93         0.00000000
  94         0.00000000
  95        -0.04425804
  96        -0.06700204
  97        -0.04425804
  98        -0.06700204
Sym=     9a1 
Ene=    -0.0011
Spin= Alpha
Occup=    1.94297
   1         0.00214272
   2        -0.00607867
   3         0.02096178
   4         0.22761967
   5         0.17410206
   6         0.00000000
   7         0.15813955
   8         0.09778053
   9         0.00000000
  10         0.01304390
  11        -0.01306162
  12        -0.00044585
  13        -0.00440348
  14         0.00000000
  15         0.00000000
  16         0.00214272
  17        -0.00607867
  18         0.02096178
  19        -0.22761967
  20         0.17410206
  21         0.00000000
  22        -0.15813955
  23         0.09778053
  24         0.00000000
  25         0.01304390
  26        -0.01306162
  27        -0.00044585
  28         0.00440348
  29         0.00000000
  30         0.00000000
  31        -0.00140469
  32         0.00087879
  33         0.00087755
  34         0.23208022
  35         0.17022961
  36         0.00000000
  37         0.16154421
  38         0.08260517
  39         0.00000000
  40        -0.01390233
  41         0.01290330
  42        -0.00031759
  43         0.00558855
  44         0.00000000
  45         0.00000000
  46        -0.00140469
  47         0.00087879
  48         0.00087755
  49        -0.23208022
  50         0.17022961
  51         0.00000000
  52        -0.16154421
  53         0.08260517
  54         0.00000000
  55        -0.01390233
  56         0.01290330
  57        -0.00031759
  58        -0.00558855
  59         0.00000000
  60         0.00000000
  61         0.00069040
  62         0.00642623
  63         0.00069040
  64         0.00642623
  65         0.01260993
  66        -0.02874201
  67        -0.05219206
  68        -0.04328631
  69        -0.01225983
  70         0.00000000
  71        -0.01516851
  72        -0.01917311
  73         0.00000000
  74        -0.01008351
  75         0.01232851
  76        -0.00019972
  77         0.00523282
  78         0.00000000
  79         0.00000000
  80         0.01260993
  81        -0.02874201
  82        -0.05219206
  83         0.04328631
  84        -0.01225983
  85         0.00000000
  86         0.01516851
  87        -0.01917311
  88         0.00000000
  89        -0.01008351
  90         0.01232851
  91        -0.00019972
  92        -0.00523282
  93         0.00000000
  94         0.00000000
  95         0.03179912
  96         0.05454946
  97         0.03179912
  98         0.05454946
Sym=    10a1 
Ene=     0.0335
Spin= Alpha
Occup=    0.05900
   1         0.00027481
   2         0.00146657
   3         0.02619049
   4        -0.36793025
   5        -0.27260888
   6         0.00000000
   7        -0.17552528
   8        -0.15019967
   9         0.00000000
  10         0.00654717
  11        -0.00625706
  12        -0.00057290
  13        -0.00131002
  14         0.00000000
  15         0.00000000
  16         0.00027481
  17         0.00146657
  18         0.02619049
  19         0.36793025
  20        -0.27260888
  21         0.00000000
  22         0.17552528
  23        -0.15019967
  24         0.00000000
  25         0.00654717
  26        -0.00625706
  27        -0.00057290
  28         0.00131002
  29         0.00000000
  30         0.00000000
  31         0.00003709
  32         0.00615978
  33        -0.02362180
  34         0.36606045
  35         0.26893709
  36         0.00000000
  37         0.19734266
  38         0.12210495
  39         0.00000000
  40         0.00532265
  41        -0.00684717
  42         0.00026857
  43         0.00003895
  44         0.00000000
  45         0.00000000
  46         0.00003709
  47         0.00615978
  48        -0.02362180
  49        -0.36606045
  50         0.26893709
  51         0.00000000
  52        -0.19734266
  53         0.12210495
  54         0.00000000
  55         0.00532265
  56        -0.00684717
  57         0.00026857
  58        -0.00003895
  59         0.00000000
  60         0.00000000
  61        -0.00100733
  62         0.00339800
  63        -0.00100733
  64         0.00339800
  65         0.01049850
  66        -0.02844390
  67        -0.01793522
  68        -0.05560977
  69        -0.02736786
  70         0.00000000
  71        -0.03619576
  72        -0.02754315
  73         0.00000000
  74        -0.01263410
  75         0.01619282
  76         0.00010656
  77         0.00519333
  78         0.00000000
  79         0.00000000
  80         0.01049850
  81        -0.02844390
  82        -0.01793522
  83         0.05560977
  84        -0.02736786
  85         0.00000000
  86         0.03619576
  87        -0.02754315
  88         0.00000000
  89        -0.01263410
  90         0.01619282
  91         0.00010656
  92        -0.00519333
  93         0.00000000
  94         0.00000000
  95         0.04218973
  96         0.04604526
  97         0.04218973
  98         0.04604526
Sym=    11a1 
Ene=     0.2749
Spin= Alpha
Occup=    0.00000
   1        -0.06502240
   2         0.12581311
   3        -0.69424081
   4        -0.08133375
   5         0.10864107
   6         0.00000000
   7        -1.26591694
   8         1.63359981
   9         0.00000000
  10        -0.00218021
  11        -0.01289167
  12         0.00794373
  13         0.01629683
  14         0.00000000
  15         0.00000000
  16        -0.06502240
  17         0.12581311
  18        -0.69424081
  19         0.08133375
  20         0.10864107
  21         0.00000000
  22         1.26591694