[Molden Format]
[N_Atoms]
                   10
[Atoms] (AU)
C1          1      6          -4.17334117      1.98618035      0.00000000
C1          2      6           4.17334117      1.98618035      0.00000000
C2          3      6          -2.81680496      0.19716478      0.00000000
C2          4      6           2.81680496      0.19716478      0.00000000
H3          5      1           5.35837138      3.59381466      0.00000000
H3          6      1          -5.35837138      3.59381466      0.00000000
C4          7      6          -1.25521675     -2.01758573      0.00000000
C4          8      6           1.25521675     -2.01758573      0.00000000
H5          9      1          -2.23214146     -3.79902477      0.00000000
H5         10      1           2.23214146     -3.79902477      0.00000000
[Charge] (Mulliken)
  -1.0140132006462608     
  -1.0140132006462608     
  0.30397372267609768     
  0.30397372267609768     
  0.59521773489509378     
  0.59521773489509378     
 -0.34856859248536942     
 -0.34856859248536942     
  0.46339033555834241     
  0.46339033555834241     
[GTO] (AU)
   1
   s   6
  3.047524880E+03  1.834737132E-03
  4.573695180E+02  1.403732281E-02
  1.039486850E+02  6.884262227E-02
  2.921015530E+01  2.321844432E-01
  9.286662960E+00  4.679413484E-01
  3.163926960E+00  3.623119853E-01
   s   3
  7.868272350E+00 -1.193324198E-01
  1.881288540E+00 -1.608541517E-01
  5.442492580E-01  1.143456438E+00
   s   1
  1.687144782E-01  1.000000000E+00
   p   3
  7.868272350E+00  6.899906659E-02
  1.881288540E+00  3.164239610E-01
  5.442492580E-01  7.443082909E-01
   p   1
  1.687144782E-01  1.000000000E+00
   d   1
  8.000000000E-01  1.000000000E+00
 
   2
   s   6
  3.047524880E+03  1.834737132E-03
  4.573695180E+02  1.403732281E-02
  1.039486850E+02  6.884262227E-02
  2.921015530E+01  2.321844432E-01
  9.286662960E+00  4.679413484E-01
  3.163926960E+00  3.623119853E-01
   s   3
  7.868272350E+00 -1.193324198E-01
  1.881288540E+00 -1.608541517E-01
  5.442492580E-01  1.143456438E+00
   s   1
  1.687144782E-01  1.000000000E+00
   p   3
  7.868272350E+00  6.899906659E-02
  1.881288540E+00  3.164239610E-01
  5.442492580E-01  7.443082909E-01
   p   1
  1.687144782E-01  1.000000000E+00
   d   1
  8.000000000E-01  1.000000000E+00
 
   3
   s   6
  3.047524880E+03  1.834737132E-03
  4.573695180E+02  1.403732281E-02
  1.039486850E+02  6.884262227E-02
  2.921015530E+01  2.321844432E-01
  9.286662960E+00  4.679413484E-01
  3.163926960E+00  3.623119853E-01
   s   3
  7.868272350E+00 -1.193324198E-01
  1.881288540E+00 -1.608541517E-01
  5.442492580E-01  1.143456438E+00
   s   1
  1.687144782E-01  1.000000000E+00
   p   3
  7.868272350E+00  6.899906659E-02
  1.881288540E+00  3.164239610E-01
  5.442492580E-01  7.443082909E-01
   p   1
  1.687144782E-01  1.000000000E+00
   d   1
  8.000000000E-01  1.000000000E+00
 
   4
   s   6
  3.047524880E+03  1.834737132E-03
  4.573695180E+02  1.403732281E-02
  1.039486850E+02  6.884262227E-02
  2.921015530E+01  2.321844432E-01
  9.286662960E+00  4.679413484E-01
  3.163926960E+00  3.623119853E-01
   s   3
  7.868272350E+00 -1.193324198E-01
  1.881288540E+00 -1.608541517E-01
  5.442492580E-01  1.143456438E+00
   s   1
  1.687144782E-01  1.000000000E+00
   p   3
  7.868272350E+00  6.899906659E-02
  1.881288540E+00  3.164239610E-01
  5.442492580E-01  7.443082909E-01
   p   1
  1.687144782E-01  1.000000000E+00
   d   1
  8.000000000E-01  1.000000000E+00
 
   5
   s   3
  1.873113696E+01  3.349460434E-02
  2.825394365E+00  2.347269535E-01
  6.401216923E-01  8.137573261E-01
   s   1
  1.612777588E-01  1.000000000E+00
 
   6
   s   3
  1.873113696E+01  3.349460434E-02
  2.825394365E+00  2.347269535E-01
  6.401216923E-01  8.137573261E-01
   s   1
  1.612777588E-01  1.000000000E+00
 
   7
   s   6
  3.047524880E+03  1.834737132E-03
  4.573695180E+02  1.403732281E-02
  1.039486850E+02  6.884262227E-02
  2.921015530E+01  2.321844432E-01
  9.286662960E+00  4.679413484E-01
  3.163926960E+00  3.623119853E-01
   s   3
  7.868272350E+00 -1.193324198E-01
  1.881288540E+00 -1.608541517E-01
  5.442492580E-01  1.143456438E+00
   s   1
  1.687144782E-01  1.000000000E+00
   p   3
  7.868272350E+00  6.899906659E-02
  1.881288540E+00  3.164239610E-01
  5.442492580E-01  7.443082909E-01
   p   1
  1.687144782E-01  1.000000000E+00
   d   1
  8.000000000E-01  1.000000000E+00
 
   8
   s   6
  3.047524880E+03  1.834737132E-03
  4.573695180E+02  1.403732281E-02
  1.039486850E+02  6.884262227E-02
  2.921015530E+01  2.321844432E-01
  9.286662960E+00  4.679413484E-01
  3.163926960E+00  3.623119853E-01
   s   3
  7.868272350E+00 -1.193324198E-01
  1.881288540E+00 -1.608541517E-01
  5.442492580E-01  1.143456438E+00
   s   1
  1.687144782E-01  1.000000000E+00
   p   3
  7.868272350E+00  6.899906659E-02
  1.881288540E+00  3.164239610E-01
  5.442492580E-01  7.443082909E-01
   p   1
  1.687144782E-01  1.000000000E+00
   d   1
  8.000000000E-01  1.000000000E+00
 
   9
   s   3
  1.873113696E+01  3.349460434E-02
  2.825394365E+00  2.347269535E-01
  6.401216923E-01  8.137573261E-01
   s   1
  1.612777588E-01  1.000000000E+00
 
  10
   s   3
  1.873113696E+01  3.349460434E-02
  2.825394365E+00  2.347269535E-01
  6.401216923E-01  8.137573261E-01
   s   1
  1.612777588E-01  1.000000000E+00
 
[MO]
Sym=     1a1 
Ene=   -11.2710
Spin= Alpha
Occup=    2.00000
   1         0.00023649
   2         0.00024745
   3        -0.00319354
   4         0.00009612
   5        -0.00008760
   6         0.00000000
   7        -0.00142227
   8         0.00182694
   9         0.00000000
  10         0.00006579
  11         0.00005596
  12         0.00000492
  13        -0.00006286
  14         0.00000000
  15         0.00000000
  16         0.00023649
  17         0.00024745
  18        -0.00319354
  19        -0.00009612
  20        -0.00008760
  21         0.00000000
  22         0.00142227
  23         0.00182694
  24         0.00000000
  25         0.00006579
  26         0.00005596
  27         0.00000492
  28         0.00006286
  29         0.00000000
  30         0.00000000
  31         0.00832269
  32         0.00014174
  33         0.00514303
  34        -0.00002945
  35         0.00008162
  36         0.00000000
  37        -0.00088651
  38         0.00120776
  39         0.00000000
  40        -0.00025329
  41        -0.00055251
  42        -0.00015202
  43         0.00019610
  44         0.00000000
  45         0.00000000
  46         0.00832269
  47         0.00014174
  48         0.00514303
  49         0.00002945
  50         0.00008162
  51         0.00000000
  52         0.00088651
  53         0.00120776
  54         0.00000000
  55        -0.00025329
  56        -0.00055251
  57        -0.00015202
  58        -0.00019610
  59         0.00000000
  60         0.00000000
  61        -0.00011024
  62        -0.00068014
  63        -0.00011024
  64        -0.00068014
  65         0.70372048
  66         0.01928191
  67        -0.00509170
  68        -0.00031972
  69         0.00037018
  70         0.00000000
  71         0.00074781
  72        -0.00010641
  73         0.00000000
  74        -0.00120059
  75        -0.00148131
  76        -0.00178261
  77        -0.00008667
  78         0.00000000
  79         0.00000000
  80         0.70372048
  81         0.01928191
  82        -0.00509170
  83         0.00031972
  84         0.00037018
  85         0.00000000
  86        -0.00074781
  87        -0.00010641
  88         0.00000000
  89        -0.00120059
  90        -0.00148131
  91        -0.00178261
  92         0.00008667
  93         0.00000000
  94         0.00000000
  95        -0.00008019
  96         0.00136718
  97        -0.00008019
  98         0.00136718
Sym=     2a1 
Ene=   -11.2360
Spin= Alpha
Occup=    2.00000
   1         0.22853411
   2         0.00542418
   3         0.00054264
   4        -0.00025240
   5         0.00031642
   6         0.00000000
   7         0.00060076
   8        -0.00096657
   9         0.00000000
  10        -0.00059765
  11        -0.00036663
  12        -0.00081686
  13        -0.00035580
  14         0.00000000
  15         0.00000000
  16         0.22853411
  17         0.00542418
  18         0.00054264
  19         0.00025240
  20         0.00031642
  21         0.00000000
  22        -0.00060076
  23        -0.00096657
  24         0.00000000
  25        -0.00059765
  26        -0.00036663
  27        -0.00081686
  28         0.00035580
  29         0.00000000
  30         0.00000000
  31         0.66535714
  32         0.01784502
  33        -0.00547651
  34         0.00002736
  35        -0.00021368
  36         0.00000000
  37        -0.00002297
  38         0.00049155
  39         0.00000000
  40        -0.00134397
  41        -0.00076085
  42        -0.00203670
  43        -0.00106083
  44         0.00000000
  45         0.00000000
  46         0.66535714
  47         0.01784502
  48        -0.00547651
  49        -0.00002736
  50        -0.00021368
  51         0.00000000
  52         0.00002297
  53         0.00049155
  54         0.00000000
  55        -0.00134397
  56        -0.00076085
  57        -0.00203670
  58         0.00106083
  59         0.00000000
  60         0.00000000
  61        -0.00030111
  62         0.00063426
  63        -0.00030111
  64         0.00063426
  65        -0.00826602
  66        -0.00023077
  67         0.00185769
  68         0.00032652
  69        -0.00049915
  70         0.00000000
  71        -0.00048937
  72         0.00059255
  73         0.00000000
  74        -0.00032483
  75        -0.00061318
  76        -0.00016653
  77         0.00038658
  78         0.00000000
  79         0.00000000
  80        -0.00826602
  81        -0.00023077
  82         0.00185769
  83        -0.00032652
  84        -0.00049915
  85         0.00000000
  86         0.00048937
  87         0.00059255
  88         0.00000000
  89        -0.00032483
  90        -0.00061318
  91        -0.00016653
  92        -0.00038658
  93         0.00000000
  94         0.00000000
  95        -0.00008105
  96         0.00010652
  97        -0.00008105
  98         0.00010652
Sym=     3a1 
Ene=   -11.2300
Spin= Alpha
Occup=    2.00000
   1        -0.66577660
   2        -0.01845605
   3         0.01031975
   4        -0.00013646
   5         0.00016488
   6         0.00000000
   7         0.00193818
   8        -0.00261823
   9         0.00000000
  10         0.00141657
  11         0.00108249
  12         0.00187227
  13         0.00068180
  14         0.00000000
  15         0.00000000
  16        -0.66577660
  17        -0.01845605
  18         0.01031975
  19         0.00013646
  20         0.00016488
  21         0.00000000
  22        -0.00193818
  23        -0.00261823
  24         0.00000000
  25         0.00141657
  26         0.00108249
  27         0.00187227
  28        -0.00068180
  29         0.00000000
  30         0.00000000
  31         0.22954949
  32         0.00704916
  33        -0.00849155
  34        -0.00020257
  35         0.00019918
  36         0.00000000
  37         0.00218363
  38        -0.00271439
  39         0.00000000
  40        -0.00044509
  41        -0.00038690
  42        -0.00049449
  43        -0.00008042
  44         0.00000000
  45         0.00000000
  46         0.22954949
  47         0.00704916
  48        -0.00849155
  49         0.00020257
  50         0.00019918
  51         0.00000000
  52        -0.00218363
  53        -0.00271439
  54         0.00000000
  55        -0.00044509
  56        -0.00038690
  57        -0.00049449
  58         0.00008042
  59         0.00000000
  60         0.00000000
  61         0.00060638
  62        -0.00048754
  63         0.00060638
  64        -0.00048754
  65        -0.00264132
  66        -0.00014735
  67        -0.00001548
  68         0.00003565
  69        -0.00008487
  70         0.00000000
  71        -0.00011418
  72         0.00009674
  73         0.00000000
  74        -0.00005905
  75        -0.00009164
  76        -0.00005980
  77         0.00003546
  78         0.00000000
  79         0.00000000
  80        -0.00264132
  81        -0.00014735
  82        -0.00001548
  83        -0.00003565
  84        -0.00008487
  85         0.00000000
  86         0.00011418
  87         0.00009674
  88         0.00000000
  89        -0.00005905
  90        -0.00009164
  91        -0.00005980
  92        -0.00003546
  93         0.00000000
  94         0.00000000
  95        -0.00004005
  96         0.00006678
  97        -0.00004005
  98         0.00006678
Sym=     4a1 
Ene=    -1.1161
Spin= Alpha
Occup=    2.00000
   1        -0.04351781
   2         0.07655207
   3         0.10692501
   4         0.02846157
   5        -0.03572301
   6         0.00000000
   7         0.01973665
   8        -0.02555915
   9         0.00000000
  10         0.00035049
  11         0.00189045
  12        -0.00246061
  13        -0.00389573
  14         0.00000000
  15         0.00000000
  16        -0.04351781
  17         0.07655207
  18         0.10692501
  19        -0.02846157
  20        -0.03572301
  21         0.00000000
  22        -0.01973665
  23        -0.02555915
  24         0.00000000
  25         0.00035049
  26         0.00189045
  27        -0.00246061
  28         0.00389573
  29         0.00000000
  30         0.00000000
  31        -0.08502762
  32         0.16220898
  33         0.05974097
  34         0.02378606
  35        -0.02475912
  36         0.00000000
  37         0.03551938
  38        -0.04547416
  39         0.00000000
  40         0.00330946
  41         0.00926800
  42        -0.00657384
  43        -0.01415489
  44         0.00000000
  45         0.00000000
  46        -0.08502762
  47         0.16220898
  48         0.05974097
  49        -0.02378606
  50        -0.02475912
  51         0.00000000
  52        -0.03551938
  53        -0.04547416
  54         0.00000000
  55         0.00330946
  56         0.00926800
  57        -0.00657384
  58         0.01415489
  59         0.00000000
  60         0.00000000
  61         0.01451332
  62         0.00689948
  63         0.01451332
  64         0.00689948
  65        -0.13600032
  66         0.26353686
  67         0.15255093
  68         0.06578626
  69         0.02973507
  70         0.00000000
  71         0.00885194
  72        -0.01093523
  73         0.00000000
  74         0.01327432
  75         0.00408808
  76        -0.01108378
  77        -0.00000251
  78         0.00000000
  79         0.00000000
  80        -0.13600032
  81         0.26353686
  82         0.15255093
  83        -0.06578626
  84         0.02973507
  85         0.00000000
  86        -0.00885194
  87        -0.01093523
  88         0.00000000
  89         0.01327432
  90         0.00408808
  91        -0.01108378
  92         0.00000251
  93         0.00000000
  94         0.00000000
  95         0.06468921
  96         0.00374369
  97         0.06468921
  98         0.00374369
Sym=     5a1 
Ene=    -0.9987
Spin= Alpha
Occup=    2.00000
   1         0.11844394
   2        -0.21746969
   3        -0.18334639
   4        -0.05998045
   5         0.08031763
   6         0.00000000
   7         0.00077203
   8        -0.00273181
   9         0.00000000
  10        -0.00149429
  11        -0.00976676
  12         0.00929292
  13         0.01633870
  14         0.00000000
  15         0.00000000
  16         0.11844394
  17        -0.21746969
  18        -0.18334639
  19         0.05998045
  20         0.08031763
  21         0.00000000
  22        -0.00077203
  23        -0.00273181
  24         0.00000000
  25        -0.00149429
  26        -0.00976676
  27         0.00929292
  28        -0.01633870
  29         0.00000000
  30         0.00000000
  31         0.08874587
  32        -0.15781819
  33        -0.12949188
  34         0.09758043
  35        -0.12479871
  36         0.00000000
  37        -0.00583003
  38         0.01396230
  39         0.00000000
  40         0.00247194
  41        -0.00032936
  42         0.00527464
  43         0.00421234
  44         0.00000000
  45         0.00000000
  46         0.08874587
  47        -0.15781819
  48        -0.12949188
  49        -0.09758043
  50        -0.12479871
  51         0.00000000
  52         0.00583003
  53         0.01396230
  54         0.00000000
  55         0.00247194
  56        -0.00032936
  57         0.00527464
  58        -0.00421234
  59         0.00000000
  60         0.00000000
  61        -0.05178097
  62        -0.00044391
  63        -0.05178097
  64        -0.00044391
  65        -0.07352067
  66         0.13957422
  67         0.14134409
  68         0.08258572
  69        -0.03562682
  70         0.00000000
  71         0.00238807
  72         0.00163509
  73         0.00000000
  74         0.00759793
  75        -0.00224757
  76        -0.00607217
  77         0.00477725
  78         0.00000000
  79         0.00000000
  80        -0.07352067
  81         0.13957422
  82         0.14134409
  83        -0.08258572
  84        -0.03562682
  85         0.00000000
  86        -0.00238807
  87         0.00163509
  88         0.00000000
  89         0.00759793
  90        -0.00224757
  91        -0.00607217
  92        -0.00477725
  93         0.00000000
  94         0.00000000
  95         0.04614321
  96         0.01156156
  97         0.04614321
  98         0.01156156
Sym=     6a1 
Ene=    -0.7503
Spin= Alpha
Occup=    2.00000
   1        -0.06775907
   2         0.13771231
   3         0.09369595
   4        -0.09181233
   5         0.11848217
   6         0.00000000
   7        -0.05704505
   8         0.07037070
   9         0.00000000
  10         0.00425350
  11         0.01356166
  12        -0.00569914
  13        -0.01616941
  14         0.00000000
  15         0.00000000
  16        -0.06775907
  17         0.13771231
  18         0.09369595
  19         0.09181233
  20         0.11848217
  21         0.00000000
  22         0.05704505
  23         0.07037070
  24         0.00000000
  25         0.00425350
  26         0.01356166
  27        -0.00569914
  28         0.01616941
  29         0.00000000
  30         0.00000000
  31         0.06935307
  32        -0.14376633
  33        -0.06846598
  34        -0.06677753
  35         0.08046590
  36         0.00000000
  37        -0.03548046
  38         0.04972598
  39         0.00000000
  40        -0.00219186
  41        -0.00871817
  42         0.00564834
  43         0.01236202
  44         0.00000000
  45         0.00000000
  46         0.06935307
  47        -0.14376633
  48        -0.06846598
  49         0.06677753
  50         0.08046590
  51         0.00000000
  52         0.03548046
  53         0.04972598
  54         0.00000000
  55        -0.00219186
  56        -0.00871817
  57         0.00564834
  58        -0.01236202
  59         0.00000000
  60         0.00000000
  61         0.14684447
  62         0.06430300
  63         0.14684447
  64         0.06430300
  65        -0.02125079
  66         0.04116157
  67         0.04864282
  68         0.13103505
  69        -0.19356833
  70         0.00000000
  71         0.02941136
  72        -0.06503217
  73         0.00000000
  74         0.00598015
  75        -0.00334606
  76        -0.00061576
  77         0.00809764
  78         0.00000000
  79         0.00000000
  80        -0.02125079
  81         0.04116157
  82         0.04864282
  83        -0.13103505
  84        -0.19356833
  85         0.00000000
  86        -0.02941136
  87        -0.06503217
  88         0.00000000
  89         0.00598015
  90        -0.00334606
  91        -0.00061576
  92        -0.00809764
  93         0.00000000
  94         0.00000000
  95         0.07373807
  96         0.03608123
  97         0.07373807
  98         0.03608123
Sym=     7a1 
Ene=    -0.6829
Spin= Alpha
Occup=    2.00000
   1        -0.00912879
   2         0.02939104
   3        -0.07605408
   4        -0.12703380
   5         0.20063919
   6         0.00000000
   7        -0.07809709
   8         0.12015693
   9         0.00000000
  10         0.00652685
  11         0.00642084
  12         0.00011120
  13        -0.00763042
  14         0.00000000
  15         0.00000000
  16        -0.00912879
  17         0.02939104
  18        -0.07605408
  19         0.12703380
  20         0.20063919
  21         0.00000000
  22         0.07809709
  23         0.12015693
  24         0.00000000
  25         0.00652685
  26         0.00642084
  27         0.00011120
  28         0.00763042
  29         0.00000000
  30         0.00000000
  31         0.01103267
  32        -0.01551152
  33         0.07476010
  34         0.15236554
  35        -0.13735686
  36         0.00000000
  37        -0.03625777
  38         0.06802898
  39         0.00000000
  40         0.00315797
  41        -0.00079307
  42         0.00198663
  43        -0.00019401
  44         0.00000000
  45         0.00000000
  46         0.01103267
  47        -0.01551152
  48         0.07476010
  49        -0.15236554
  50        -0.13735686
  51         0.00000000
  52         0.03625777
  53         0.06802898
  54         0.00000000
  55         0.00315797
  56        -0.00079307
  57         0.00198663
  58         0.00019401
  59         0.00000000
  60         0.00000000
  61         0.14251106
  62         0.07177301
  63         0.14251106
  64         0.07177301
  65        -0.00175879
  66         0.00163269
  67         0.05635182
  68         0.02769151
  69         0.23326013
  70         0.00000000
  71         0.00124917
  72         0.11820321
  73         0.00000000
  74         0.00019307
  75        -0.00328572
  76        -0.00058304
  77        -0.00749259
  78         0.00000000
  79         0.00000000
  80        -0.00175879
  81         0.00163269
  82         0.05635182
  83        -0.02769151
  84         0.23326013
  85         0.00000000
  86        -0.00124917
  87         0.11820321
  88         0.00000000
  89         0.00019307
  90        -0.00328572
  91        -0.00058304
  92         0.00749259
  93         0.00000000
  94         0.00000000
  95        -0.12143871
  96        -0.06707939
  97        -0.12143871
  98        -0.06707939
Sym=     8a1 
Ene=    -0.6484
Spin= Alpha
Occup=    2.00000
   1        -0.00715639
   2         0.00687411
   3         0.07625861
   4         0.10310769
   5        -0.07124817
   6         0.00000000
   7         0.06446977
   8        -0.05059026
   9         0.00000000
  10         0.00218955
  11        -0.00765324
  12        -0.00109825
  13         0.00043622
  14         0.00000000
  15         0.00000000
  16        -0.00715639
  17         0.00687411
  18         0.07625861
  19        -0.10310769
  20        -0.07124817
  21         0.00000000
  22        -0.06446977
  23        -0.05059026
  24         0.00000000
  25         0.00218955
  26        -0.00765324
  27        -0.00109825
  28        -0.00043622
  29         0.00000000
  30         0.00000000
  31         0.01081396
  32        -0.02550113
  33        -0.08372117
  34        -0.02530307
  35         0.17189258
  36         0.00000000
  37         0.04513410
  38        -0.01399607
  39         0.00000000
  40         0.00491394
  41        -0.00582608
  42         0.00024169
  43        -0.00146037
  44         0.00000000
  45         0.00000000
  46         0.01081396
  47        -0.02550113
  48        -0.08372117
  49         0.02530307
  50         0.17189258
  51         0.00000000
  52        -0.04513410
  53        -0.01399607
  54         0.00000000
  55         0.00491394
  56        -0.00582608
  57         0.00024169
  58         0.00146037
  59         0.00000000
  60         0.00000000
  61        -0.06113263
  62        -0.03155363
  63        -0.06113263
  64        -0.03155363
  65        -0.01001231
  66         0.02473290
  67        -0.05643739
  68         0.37165172
  69         0.06096090
  70         0.00000000
  71         0.14065933
  72         0.01471996
  73         0.00000000
  74         0.00863559
  75        -0.02045934
  76         0.00151977
  77         0.00179313
  78         0.00000000
  79         0.00000000
  80        -0.01001231
  81         0.02473290
  82        -0.05643739
  83        -0.37165172
  84         0.06096090
  85         0.00000000
  86        -0.14065933
  87         0.01471996
  88         0.00000000
  89         0.00863559
  90        -0.02045934
  91         0.00151977
  92        -0.00179313
  93         0.00000000
  94         0.00000000
  95        -0.12582194
  96        -0.08858608
  97        -0.12582194
  98        -0.08858608
Sym=     9a1 
Ene=    -0.4000
Spin= Alpha
Occup=    2.00000
   1         0.00269268
   2        -0.00671006
   3         0.01497654
   4         0.21667607
   5         0.17064932
   6         0.00000000
   7         0.15977145
   8         0.10441457
   9         0.00000000
  10         0.01470812
  11        -0.01455423
  12        -0.00042075
  13        -0.00496752
  14         0.00000000
  15         0.00000000
  16         0.00269268
  17        -0.00671006
  18         0.01497654
  19        -0.21667607
  20         0.17064932
  21         0.00000000
  22        -0.15977145
  23         0.10441457
  24         0.00000000
  25         0.01470812
  26        -0.01455423
  27        -0.00042075
  28         0.00496752
  29         0.00000000
  30         0.00000000
  31        -0.00188686
  32         0.00153462
  33         0.00605698
  34         0.21769849
  35         0.15298532
  36         0.00000000
  37         0.16436752
  38         0.08986375
  39         0.00000000
  40        -0.01746956
  41         0.01628555
  42        -0.00033721
  43         0.00691634
  44         0.00000000
  45         0.00000000
  46        -0.00188686
  47         0.00153462
  48         0.00605698
  49        -0.21769849
  50         0.15298532
  51         0.00000000
  52        -0.16436752
  53         0.08986375
  54         0.00000000
  55        -0.01746956
  56         0.01628555
  57        -0.00033721
  58        -0.00691634
  59         0.00000000
  60         0.00000000
  61         0.00225550
  62         0.00673588
  63         0.00225550
  64         0.00673588
  65         0.01222200
  66        -0.02787295
  67        -0.04025654
  68        -0.10189875
  69        -0.04959592
  70         0.00000000
  71        -0.04306883
  72        -0.03691058
  73         0.00000000
  74        -0.01164468
  75         0.01593768
  76        -0.00046618
  77         0.00612484
  78         0.00000000
  79         0.00000000
  80         0.01222200
  81        -0.02787295
  82        -0.04025654
  83         0.10189875
  84        -0.04959592
  85         0.00000000
  86         0.04306883
  87        -0.03691058
  88         0.00000000
  89        -0.01164468
  90         0.01593768
  91        -0.00046618
  92        -0.00612484
  93         0.00000000
  94         0.00000000
  95         0.06740955
  96         0.07549638
  97         0.06740955
  98         0.07549638
Sym=    10a1 
Ene=     0.1933
Spin= Alpha
Occup=    0.00000
   1         0.00421960
   2        -0.02231852
   3         0.13683332
   4        -0.17560874
   5        -0.11448601
   6         0.00000000
   7        -0.29071579
   8        -0.32237380
   9         0.00000000
  10         0.01445883
  11        -0.01555673
  12        -0.00226309
  13        -0.00480551
  14         0.00000000
  15         0.00000000
  16         0.00421960
  17        -0.02231852
  18         0.13683332
  19         0.17560874
  20        -0.11448601
  21         0.00000000
  22         0.29071579
  23        -0.32237380
  24         0.00000000
  25         0.01445883
  26        -0.01555673
  27        -0.00226309
  28         0.00480551
  29         0.00000000
  30         0.00000000
  31        -0.00197129
  32        -0.02426735
  33         0.07399847
  34         0.15623090
  35         0.11092711
  36         0.00000000
  37         0.39200507
  38         0.04176370
  39         0.00000000
  40         0.01974782
  41        -0.02154757
  42        -0.00325660
  43        -0.00146789
  44         0.00000000
  45         0.00000000
  46        -0.00197129
  47        -0.02426735
  48         0.07399847
  49        -0.15623090
  50         0.11092711
  51         0.00000000
  52        -0.39200507
  53         0.04176370
  54         0.00000000
  55         0.01974782
  56        -0.02154757
  57        -0.00325660
  58         0.00146789
  59         0.00000000
  60         0.00000000
  61        -0.00005044
  62         0.03650949
  63        -0.00005044
  64         0.03650949
  65         0.04491125
  66        -0.07277088
  67        -0.73172718
  68         0.00927992
  69         0.06124272
  70         0.00000000
  71         0.25625313
  72         0.16321129
  73         0.00000000
  74        -0.01815576
  75         0.02309697
  76        -0.00031758
  77         0.01755387
  78         0.00000000
  79         0.00000000
  80         0.04491125
  81        -0.07277088
  82        -0.73172718
  83        -0.00927992
  84         0.06124272
  85         0.00000000
  86        -0.25625313
  87         0.16321129
  88         0.00000000
  89        -0.01815576
  90         0.02309697
  91        -0.00031758
  92        -0.01755387
  93         0.00000000
  94         0.00000000
  95         0.07355114
  96         0.78503537
  97         0.07355114
  98         0.78503537
Sym=    11a1 
Ene=     0.2705
Spin= Alpha
Occup=    0.00000
   1        -0.06718523
   2         0.13056285
   3        -0.71743543
   4        -0.08532361
   5         0.11759527
   6         0.00000000
   7        -1.28689469
   8         1.71147829
   9         0.00000000
  10        -0.00386701
  11        -0.01267043
  12         0.00756945
  13         0.01748680
  14         0.00000000
  15         0.00000000
  16        -0.06718523
  17         0.13056285
  18        -0.71743543
  19         0.08532361
  20         0.11759527
  21         0.00000000
  22         1.28689469