   This run of MOLCAS is using the pymolcas driver

                             OPE
                             OPE          NMOL  CASOP  ENMOLC A   SO
                 OPE        NMOLC        AS  OP EN  MO LC     AS  OP
                OPENM       OL CA        SO  PE NM  OL CA     SOP EN
                OP EN      MO   LC       AS  OP ENMOL  CASO   PENMOL
                OP  EN     MO   LC       AS  OP EN     MO     LC ASO
               OP   E  NMOL  C  AS       OP  EN MO     LC     AS  OP
               OP  E   NMO   LC AS        OPEN  MO     LCASOP EN   M
               O  PEN   MO  LCA  SO
            OPE   NMO   L   CAS    OP
        OPENMOL  CASOP     ENMOL   CASOPE
     OPENMOLCA   SOPENMOLCASOPEN   MOLCASOPE
    OPENMOLCAS   OP           EN   MOL    CAS
    OPENMOLCAS       OP  ENM        O     LCA
    OPENMOLCAS    OPEN  MOLCASO     P  E  NMO
    OPENMOLCAS     OP               E  N  MOL
    OPENMOLCA   SO           PENM   O  L  CAS    OPEN    MO    LCAS
    OPENMOLCA   SOP           ENM   O  L  CAS   OP  EN  MOLC  AS   O
    OPENMOLCA   SOPE           NM      O  LCA   S      OP  EN MO
    OPENMOLC                AS         O  PEN   M      OL  CA  SOPE
    OPENMO        LCASOPE  NMOL        C  ASO   P      ENMOLC     AS
    OPE     NMO      LCA  SO     P     E   NM   OL  CA SO  PE N   MO
          OPENMOLCA            SOPE   NMO        LCAS  O    P  ENMO
     OPENMOLCASOPENMOLCASOPENMOLCASOPENMOLCA
        OPENMOLCASOPENMOLCASOPENMOLCASOPE
            OPENMOLCASOPENMOLCASOPENM
               OPENMOLCASOPENMOLCA        version: 24.02
                   OPENMOLCASO
                       OPE                tag: 428-g03afa2e9a

 OpenMolcas is free software; you can redistribute it and/or modify it
 under the terms of the GNU Lesser General Public License version 2.1.
 OpenMolcas is distributed in the hope that it will be useful, but it
 is provided "as is" and without any express or implied warranties.
 For more details see the full text of the license in the file
 LICENSE or in <http://www.gnu.org/licenses/>.

                 Copyright (C) The OpenMolcas Authors
           For the author list and the recommended citation,
                   consult the file CONTRIBUTORS.md

           *************************************************
           * pymolcas version py2.28                       *
           *   build c4a6d18ded8cb6cad61d2372a9abd97c      *
           *   (after the EMIL interpreter by V. Veryazov) *
           *************************************************

configuration info
------------------
Host name: DESKTOP-ET1S6F4 (Linux)
C Compiler ID: GNU
C flags: -std=gnu99 -fopenmp
Fortran Compiler ID: GNU
Fortran flags: -fno-aggressive-loop-optimizations -cpp -fdefault-integer-8 -fopenmp
Definitions: _WARNING_WORKAROUND_;_MOLCAS_;_I8_;_LINUX_
Parallel: OFF (GA=OFF)


   ----------------------------------------------------------------------
  |
  |           Project: reactant
  |    Submitted from: /home/kenya/molcas_test/0625_re
  |      Scratch area: /tmp/reactant
  |   Save outputs to: /home/kenya/molcas_test/0625_re
  |            Molcas: /home/kenya/OpenMolcas/builds/gnu_dev_omp
  |
  | Scratch area is NOT empty
  |
  |    MOLCAS_DRIVER = /home/kenya/OpenMolcas/builds/gnu_dev_omp/pymolcas
  |    MOLCAS_NPROCS = 1
  |    MOLCAS_SOURCE = /home/kenya/OpenMolcas
  | MOLCAS_STRUCTURE = 0
  |
   ----------------------------------------------------------------------

++ ---------   Input file   ---------

&GATEWAY
Coord = reactant.Opt.xyz
  Basis = 6-31G*
  Group = Full
  NoCD

>>> DO WHILE

  &SEWARD

  &RASSCF
    Inactive = 7 7 0 0
    RAS2   = 3 3 3 3
    nActEl = 12 0 0
    alter = 1
    2 10 15
    LUMORB

  &MCKINLEY

  &ALASKA

  &SLAPAF

>>> END DO

-- ----------------------------------

*** symbolic link created: INPORB -> reactant.RasOrb
--- Start Module: gateway at Tue Jul  2 11:57:19 2024 ---

()()()()()()()()()()()()()()()()()()()()()()()()()()()()()()()()()()()()()()()()()()()()()()()()()()

                                              &GATEWAY

                                   only a single process is used
                       available to each process: 2.0 GB of memory, 1 thread
                                            pid: 274692
()()()()()()()()()()()()()()()()()()()()()()()()()()()()()()()()()()()()()()()()()()()()()()()()()()

      Found SYMMETRY generators: xz z

++    Symmetry information:
      ---------------------

                    --- Group Generators ---
                    Rotation around the y-axis  
                    Reflection in the xy-plane  

                    Character Table for C2v

                             E   C2(y) s(xy) s(yz)
                    a1       1     1     1     1  y
                    b1       1    -1     1    -1  x, xy, Rz
                    a2       1     1    -1    -1  xz, Ry, I
                    b2       1    -1    -1     1  z, yz, Rx
--


++    Basis set information:
      ----------------------


      Basis set label: C.6-31G**....

      Electronic valence basis set:
      ------------------
      Associated Effective Charge   6.000000 au
      Associated Actual Charge      6.000000 au
      Nuclear Model: Point charge

      Shell  nPrim  nBasis  Cartesian Spherical Contaminant
         s      10       3        X                  
         p       4       2        X                  
         d       1       1        X                  


      Basis set label: H.6-31G....

      Electronic valence basis set:
      ------------------
      Associated Effective Charge   1.000000 au
      Associated Actual Charge      1.000000 au
      Nuclear Model: Point charge

      Shell  nPrim  nBasis  Cartesian Spherical Contaminant
         s       4       2        X                  


      Basis set label: C.6-31G**....

      Electronic valence basis set:
      ------------------
      Associated Effective Charge   6.000000 au
      Associated Actual Charge      6.000000 au
      Nuclear Model: Point charge

      Shell  nPrim  nBasis  Cartesian Spherical Contaminant
         s      10       3        X                  
         p       4       2        X                  
         d       1       1        X                  


      Basis set label: H.6-31G....

      Electronic valence basis set:
      ------------------
      Associated Effective Charge   1.000000 au
      Associated Actual Charge      1.000000 au
      Nuclear Model: Point charge

      Shell  nPrim  nBasis  Cartesian Spherical Contaminant
         s       4       2        X                  
--


++    Molecular structure info:
      -------------------------

                    ************************************************ 
                    **** Cartesian Coordinates / Bohr, Angstrom **** 
                    ************************************************ 

     Center  Label                x              y              z                     x              y              z
        1      C1              -4.173341       1.986180       0.000000             -2.208437       1.051041       0.000000
        2      C1               4.173341       1.986180       0.000000              2.208437       1.051041       0.000000
        3      C2              -2.816805       0.197165       0.000000             -1.490589       0.104335       0.000000
        4      C2               2.816805       0.197165       0.000000              1.490589       0.104335       0.000000
        5      H3               5.358371       3.593815       0.000000              2.835528       1.901765       0.000000
        6      H3              -5.358371       3.593815       0.000000             -2.835528       1.901765       0.000000
        7      C4              -1.255217      -2.017586       0.000000             -0.664232      -1.067660       0.000000
        8      C4               1.255217      -2.017586       0.000000              0.664232      -1.067660       0.000000
        9      H5              -2.232141      -3.799025       0.000000             -1.181198      -2.010357       0.000000
       10      H5               2.232141      -3.799025       0.000000              1.181198      -2.010357       0.000000

                    *************************************** 
                    *    InterNuclear Distances / Bohr    * 
                    *************************************** 

               1 C1            2 C1            3 C2            4 C2            5 H3            6 H3    
    1 C1       0.000000
    2 C1       8.346682        0.000000
    3 C2       2.245165        7.215450        0.000000
    4 C2       7.215450        2.245165        5.633610        0.000000
    5 H3       9.666335        1.997194        8.852725        4.242262        0.000000
    6 H3       1.997194        9.666335        4.242262        8.852725       10.716743        0.000000
    7 C4       4.954351        6.745323        2.709922        4.635351        8.673371        6.951524
    8 C4       6.745323        4.954351        4.635351        2.709922        6.951524        8.673371
    9 H5       6.102201        8.631269        4.038733        6.439052       10.595752        8.026667
   10 H5       8.631269        6.102201        6.439052        4.038733        8.026667       10.595752

               7 C4            8 C4            9 H5           10 H5    
    7 C4       0.000000
    8 C4       2.510434        0.000000
    9 H5       2.031725        3.916017        0.000000
   10 H5       3.916017        2.031725        4.464283        0.000000

                    ******************************************* 
                    *    InterNuclear Distances / Angstrom    * 
                    ******************************************* 

               1 C1            2 C1            3 C2            4 C2            5 H3            6 H3    
    1 C1       0.000000
    2 C1       4.416874        0.000000
    3 C2       1.188090        3.818252        0.000000
    4 C2       3.818252        1.188090        2.981178        0.000000
    5 H3       5.115204        1.056870        4.684660        2.244909        0.000000
    6 H3       1.056870        5.115204        2.244909        4.684660        5.671056        0.000000
    7 C4       2.621730        3.569471        1.434029        2.452922        4.589750        3.678588
    8 C4       3.569471        2.621730        2.452922        1.434029        3.678588        4.589750
    9 H5       3.229146        4.567471        2.137205        3.407400        5.607030        4.247529
   10 H5       4.567471        3.229146        3.407400        2.137205        4.247529        5.607030

               7 C4            8 C4            9 H5           10 H5    
    7 C4       0.000000
    8 C4       1.328464        0.000000
    9 H5       1.075143        2.072267        0.000000
   10 H5       2.072267        1.075143        2.362397        0.000000

                    ************************************** 
                    *    Valence Bond Angles / Degree    * 
                    ************************************** 
                          Atom centers                 Phi
                      3 C2       1 C1       6 H3       179.22
                      4 C2       2 C1       5 H3       179.22
                      1 C1       3 C2       7 C4       178.02
                      2 C1       4 C2       8 C4       178.02
                      3 C2       7 C4       8 C4       125.19
                      3 C2       7 C4       9 H5       116.07
                      8 C4       7 C4       9 H5       118.74
                      4 C2       8 C4       7 C4       125.19
                      4 C2       8 C4      10 H5       116.07
                      7 C4       8 C4      10 H5       118.74

           ***************************************************************
           *              Valence Dihedral Angles / Degree               *
           ***************************************************************
                    Atom centers                       Phi1     Phi2     Theta 
           6 H3       1 C1       3 C2       7 C4        179.22   178.02  -180.00
           5 H3       2 C1       4 C2       8 C4        179.22   178.02  -180.00
           1 C1       3 C2       7 C4       8 C4        178.02   125.19  -180.00
           1 C1       3 C2       7 C4       9 H5        178.02   116.07    -0.00
           2 C1       4 C2       8 C4       7 C4        178.02   125.19  -180.00
           2 C1       4 C2       8 C4      10 H5        178.02   116.07    -0.00
           3 C2       7 C4       8 C4       4 C2        125.19   125.19    -0.00
           3 C2       7 C4       8 C4      10 H5        125.19   118.74  -180.00
           9 H5       7 C4       8 C4      10 H5        118.74   118.74    -0.00
           4 C2       8 C4       7 C4       9 H5        125.19   118.74  -180.00
--


            Nuclear Potential Energy            166.86090531 au

--- Stop Module: gateway at Tue Jul  2 11:57:20 2024 /rc=_RC_ALL_IS_WELL_ ---
*** files: xmldump
    saved to directory /home/kenya/molcas_test/0625_re

*** symbolic link created: INPORB -> reactant.RasOrb
--- Start Module: seward at Tue Jul  2 11:57:20 2024 ---

()()()()()()()()()()()()()()()()()()()()()()()()()()()()()()()()()()()()()()()()()()()()()()()()()()

                                              &SEWARD

                                   only a single process is used
                       available to each process: 2.0 GB of memory, 1 thread
                                            pid: 274695
()()()()()()()()()()()()()()()()()()()()()()()()()()()()()()()()()()()()()()()()()()()()()()()()()()

               SEWARD will generate:
                  Multipole Moment integrals up to order  2
                  Kinetic Energy integrals
                  Nuclear Attraction integrals (point charge)
                  One-Electron Hamiltonian integrals
                  Velocity integrals
                  Orbital angular momentum around ( 0.0000  0.0469  0.0000 )
                  Velocity quadrupole around ( 0.0000  0.0469  0.0000 )
                  Two-Electron Repulsion integrals

                   Integrals are discarded if absolute value <: 1.00E-14
                   Integral cutoff threshold is set to       <: 1.00E-16

                    Unitary symmetry adaptation


            Nuclear Potential Energy            166.86090531 au


      Basis set specifications :
      Symmetry species         a1   b1   a2   b2 
      Basis functions           37   37   12   12


      Input file to MOLDEN was generated!

--- Stop Module: seward at Tue Jul  2 11:57:21 2024 /rc=_RC_ALL_IS_WELL_ ---
*** files: reactant.GssOrb reactant.guessorb.molden xmldump
    saved to directory /home/kenya/molcas_test/0625_re
--- Module seward spent 1 second ---

*** symbolic link created: INPORB -> reactant.RasOrb
--- Start Module: rasscf at Tue Jul  2 11:57:21 2024 ---

()()()()()()()()()()()()()()()()()()()()()()()()()()()()()()()()()()()()()()()()()()()()()()()()()()

                                              &RASSCF

                                   only a single process is used
                       available to each process: 2.0 GB of memory, 1 thread
                                            pid: 274728
()()()()()()()()()()()()()()()()()()()()()()()()()()()()()()()()()()()()()()()()()()()()()()()()()()

 ###############################################################################
 ###############################################################################
 ###                                                                         ###
 ###                                                                         ###
 ###    WARNING: Had to guess the spin.                                      ###
 ###                                                                         ###
 ###                                                                         ###
 ###############################################################################
 ###############################################################################
  Warning: no input and no reliable source
  for the spin multiplicity.
  Guess ISPIN=                    1

      Header of the ONEINT file:
      --------------------------
      
      Integrals generated by Gateway/Seward, Tue Jul  2 11:57:20 2024


      OrdInt status: non-squared


      Cartesian coordinates in Angstrom:
      -----------------------------------------------------
      No.  Label        X            Y            Z        
      -----------------------------------------------------
       1   C1        -2.20843704   1.05104138   0.00000000
       2   C2        -1.49058899   0.10433511   0.00000000
       3   H3         2.83552802   1.90176482   0.00000000
       4   C4        -0.66423210  -1.06766039   0.00000000
       5   H5        -1.18119839  -2.01035733   0.00000000
       6   C1         2.20843704   1.05104138   0.00000000
       7   C2         1.49058899   0.10433511   0.00000000
       8   H3        -2.83552802   1.90176482   0.00000000
       9   C4         0.66423210  -1.06766039   0.00000000
      10   H5         1.18119839  -2.01035733   0.00000000
      -----------------------------------------------------
      Nuclear repulsion energy =  166.86090531

++    Wave function specifications:
      -----------------------------

      Number of closed shell electrons          28
      Number of electrons in active shells      12
      Max number of holes in RAS1 space          0
      Max nr of electrons in RAS3 space          0
      Number of inactive orbitals               14
      Number of active orbitals                 12
      Number of secondary orbitals              72
      Spin quantum number                      0.0
      State symmetry                             1
--

++    Orbital specifications:
      -----------------------

      Symmetry species                           1   2   3   4
                                                a1  b1  a2  b2
      Frozen orbitals                            0   0   0   0
      Inactive orbitals                          7   7   0   0
      Active orbitals                            3   3   3   3
      RAS1 orbitals                              0   0   0   0
      RAS2 orbitals                              3   3   3   3
      RAS3 orbitals                              0   0   0   0
      Secondary orbitals                        27  27   9   9
      Deleted orbitals                           0   0   0   0
      Number of basis functions                 37  37  12  12
--

++    CI expansion specifications:
      ----------------------------

      Number of CSFs                         56928
      Number of determinants                107334
      Number of root(s) required                 1
      Root chosen for geometry opt.              1
      CI root used                               1
         
      highest root included in the CI            1
      max. size of the explicit Hamiltonian    200
--

++    Optimization specifications:
      ----------------------------

      RASSCF algorithm: Conventional
      Maximum number of macro iterations       200
      Maximum number of SX iterations          100
      Threshold for RASSCF energy            1.000E-08
      Threshold for max MO rotation          1.000E-01
      Threshold for max BLB element          1.000E-04
      Level shift parameter                  5.000E-01
      Make Quasi-Newton update
--

      The MO-coefficients are taken from the file:
      INPORB                                                                                                                                                                                                                                                          
      Title: RASSCF average (pseudo-natural) orbitals                                      

      Total molecular charge    0.00

      Molecular orbitals exchanged:
        In symmetry  2 :  10  15


      ************************************************************************************************************************
      *                                                                                                                      *
      *                                            Wave function control section                                             *
      *                                                                                                                      *
      ************************************************************************************************************************


                                         RASSCF iterations: Energy and convergence statistics
                                         ----------------------------------------------------

      Iter CI   SX   CI       RASSCF       Energy    max ROT     max BLB   max BLB  Level Ln srch  Step   QN   Walltime
          iter iter root      energy       change     param      element    value   shift minimum  type update hh:mm:ss
 Nr of preliminary CI iterations:   5
        1   1   11    1  -229.54539288    0.00E+00   2.94E-01*   8  36 1 -5.42E-03*  0.00   0.00    SX    NO    0:00:02
        2   3    9    1  -229.54630062   -9.08E-04* -2.14E-01*   8  13 2  1.81E-03*  0.00   0.00    SX    NO    0:00:01
        3   3    9    1  -229.54669476   -3.94E-04* -1.85E-01*   8  13 2  1.32E-03*  0.00   0.00    SX    NO    0:00:01
        4   5    9    1  -229.54721574   -5.21E-04*  3.79E-01*  10  15 2  1.38E-03*  0.00   0.00    SX    NO    0:00:01
        5   5   10    1  -229.54953642   -2.32E-03*  2.47E-01*  10  15 2  3.34E-03*  0.00   2.50    LS   YES    0:00:01
        6   4    9    1  -229.55165840   -2.12E-03*  2.97E-01*   8  15 2 -3.68E-03*  0.00   2.50    QN   YES    0:00:01
        7   4    9    1  -229.55297606   -1.32E-03*  7.86E-02    8  15 2 -9.83E-03*  0.00   1.04    QN   YES    0:00:01
        8   3    9    1  -229.55261695    3.59E-04*  1.06E-01*   8  15 2 -1.08E-02*  0.00  -0.50    SX   YES    0:00:01
        9   5    9    1  -229.55407396   -1.46E-03*  2.26E-01*   8  15 2 -6.54E-03*  0.00   2.50    QN   YES    0:00:01
       10   4    8    1  -229.55673738   -2.66E-03*  8.78E-02   10  15 2  1.09E-03*  0.00   1.56    LS   YES    0:00:01
       11   3    8    1  -229.55719855   -4.61E-04* -6.03E-02    5  10 2 -2.99E-03*  0.00   1.59    QN   YES    0:00:01
       12   4    8    1  -229.55745190   -2.53E-04*  4.06E-02    5  10 2 -2.56E-03*  0.00   1.58    QN   YES    0:00:01
       13   4    8    1  -229.55754668   -9.48E-05* -1.53E-02    8  15 2  1.72E-03*  0.00   1.33    QN   YES    0:00:01
       14   3    7    1  -229.55756477   -1.81E-05*  8.52E-03    8  15 2  6.01E-04*  0.00   1.22    QN   YES    0:00:01
       15   4    6    1  -229.55756707   -2.30E-06*  9.98E-04    8  15 2  1.62E-04*  0.00   1.09    QN   YES    0:00:01
       16   3    5    1  -229.55756726   -1.86E-07*  3.50E-04    8  21 2  2.60E-05   0.00   1.13    QN   YES    0:00:01
       17   3    5    1  -229.55756728   -2.50E-08* -2.21E-04    5  10 1 -1.09E-05   0.00   1.42    QN   YES    0:00:01
       18   1    5    1  -229.55756729   -6.94E-09  -5.69E-05    8  15 2 -8.92E-06   0.00   1.23    QN   YES    0:00:00
      Convergence after 18 iterations
       19   1    5    1  -229.55756729   -1.33E-09  -5.69E-05    8  15 2 -2.57E-06   0.00   1.23    QN   YES    0:00:01

      ************************************************************************************************************************
                                                      Wave function printout:
                       occupation of active orbitals, and spin coupling of open shells (u,d: Spin up or down)
      ************************************************************************************************************************

      Note: transformation to natural orbitals
      has been made, which may change the order of the CSFs.

      printout of CI-coefficients larger than  0.05 for root  1
      energy=    -229.557567
      conf/sym  111222333444     Coeff  Weight
         11436  222 000 200 220   0.06172 0.00381
         11507  220 200 220 200   0.16089 0.02589
         11508  220 200 2ud 200   0.06297 0.00396
         11514  220 200 2ud ud0  -0.08441 0.00712
         11528  220 200 200 220  -0.92032 0.84699
         11550  220 200 ud0 2ud  -0.06311 0.00398
         11567  220 200 uu0 d2d   0.05368 0.00288
         11568  220 200 u0u d2d  -0.06243 0.00390
         11597  220 200 000 222   0.05392 0.00291
         11653  2ud 200 200 u2d  -0.05203 0.00271
         11804  202 200 200 220   0.05976 0.00357
         12113  220 ud0 200 u2d  -0.05382 0.00290
         12172  2ud ud0 200 220   0.06661 0.00444
         12632  2uu dd0 200 220  -0.10121 0.01024
         12908  220 020 200 220   0.06244 0.00390
         13460  200 220 200 220   0.05763 0.00332
         19936  22u d00 u00 22d   0.05834 0.00340
         20434  2u0 2d0 u00 22d  -0.05699 0.00325

      Natural orbitals and occupation numbers for root  1
      sym 1:   1.993978   1.943447   0.058341
      sym 2:   1.940264   0.057776   0.006315
      sym 3:   1.942531   0.106092   0.045004
      sym 4:   1.949171   1.901944   0.055137

      ************************************************************************************************************************
      *                                                                                                                      *
      *                                                    Final results                                                     *
      *                                                                                                                      *
      ************************************************************************************************************************


++    Wave function specifications:
      -----------------------------

      Number of closed shell electrons          28
      Number of electrons in active shells      12
      Max number of holes in RAS1 space          0
      Max nr of electrons in RAS3 space          0
      Number of inactive orbitals               14
      Number of active orbitals                 12
      Number of secondary orbitals              72
      Spin quantum number                      0.0
      State symmetry                             1
--

++    Orbital specifications:
      -----------------------

      Symmetry species                           1   2   3   4
                                                a1  b1  a2  b2
      Frozen orbitals                            0   0   0   0
      Inactive orbitals                          7   7   0   0
      Active orbitals                            3   3   3   3
      RAS1 orbitals                              0   0   0   0
      RAS2 orbitals                              3   3   3   3
      RAS3 orbitals                              0   0   0   0
      Secondary orbitals                        27  27   9   9
      Deleted orbitals                           0   0   0   0
      Number of basis functions                 37  37  12  12
--

++    CI expansion specifications:
      ----------------------------

      Number of CSFs                         56928
      Number of determinants                107334
      Number of root(s) required                 1
      CI root used                               1
      highest root included in the CI            1
      Root passed to geometry opt.               1
--

++    Final optimization conditions:
      ------------------------------

      Average CI energy                            -229.55756729
      RASSCF energy for state  1                   -229.55756729
      Super-CI energy                                -0.00000000
      RASSCF energy change                            0.00000000
      Max change in MO coefficients               2.899E-04
      Max non-diagonal density matrix element    -5.689E-05
      Maximum BLB matrix element                 -2.567E-06
      (orbital pair   8,  15 in symmetry   2)
      Norm of electronic gradient            1.035E-05
--


      Final state energy(ies):
      ------------------------

::    RASSCF root number  1 Total energy:   -229.55756729

++    Molecular orbitals:
      -------------------

      Pseudonatural active orbitals and approximate occupation numbers




      Molecular orbitals for symmetry species 1: a1 


      Orbital                 1         2         3         4         5         6         7         8         9        10
      Energy           -11.2547  -11.2115  -11.2054   -1.0894   -0.7483   -0.7333   -0.6346   -0.9279   -0.0009    0.0006
      Occ. No.           2.0000    2.0000    2.0000    2.0000    2.0000    2.0000    2.0000    1.9940    1.9434    0.0583

     1 C1     1s        -0.0001    0.3447   -0.9335    0.0028   -0.1376   -0.0110    0.0046   -0.1509    0.0016    0.0021
     2 C1     2s         0.0005    0.0090   -0.0268   -0.0084    0.2731    0.0214   -0.0080    0.2629   -0.0060   -0.0058
     3 C1     *s        -0.0041    0.0014    0.0142    0.0426    0.1203    0.0972   -0.0349    0.3251    0.0349    0.0076
     4 C1     2px        0.0003   -0.0000   -0.0005   -0.0091   -0.1876    0.0267    0.0070    0.1924    0.3236   -0.5317
     5 C1     *px       -0.0019    0.0010    0.0027    0.0173   -0.1350    0.0318    0.0068    0.0769    0.2237   -0.2455
     6 C1     2py       -0.0002   -0.0001    0.0006    0.0078    0.2534   -0.0273    0.0261   -0.2607    0.2445   -0.3874
     7 C1     *py        0.0024   -0.0016   -0.0037   -0.0279    0.1791   -0.0391    0.0294   -0.1033    0.1356   -0.1907
     8 C1     *200       0.0001   -0.0006    0.0012   -0.0001    0.0058   -0.0002   -0.0009   -0.0011    0.0108    0.0027
     9 C1     *110      -0.0001   -0.0005    0.0010    0.0026   -0.0303   -0.0030    0.0007   -0.0140   -0.0064   -0.0014
    10 C1     *020       0.0000   -0.0004    0.0010   -0.0009    0.0150    0.0007    0.0014    0.0027   -0.0108   -0.0021
    11 C1     *002       0.0000   -0.0008    0.0016    0.0008   -0.0054   -0.0012    0.0002   -0.0065   -0.0004   -0.0002
    12 C2     1s         0.0090    0.9328    0.3466   -0.0644    0.0167    0.1100   -0.0309   -0.1525   -0.0019   -0.0019
    13 C2     2s         0.0003    0.0262    0.0105    0.1276   -0.0423   -0.2198    0.0598    0.2719    0.0012    0.0168
    14 C2     *s         0.0072   -0.0074   -0.0123    0.0178    0.0888   -0.2186    0.0832    0.1104   -0.0032   -0.0066
    15 C2     2px       -0.0001   -0.0005   -0.0001    0.0859    0.0211   -0.1564    0.0128   -0.1959    0.3274    0.5246
    16 C2     *px       -0.0010    0.0002    0.0030    0.0394   -0.0669    0.0069    0.0157    0.0593    0.2289    0.2558
    17 C2     2py        0.0003    0.0002    0.0000   -0.1112   -0.0258    0.2084   -0.0891    0.2570    0.2463    0.3891
    18 C2     *py        0.0015    0.0003   -0.0037   -0.0522    0.0915    0.0061    0.0057   -0.0878    0.1158    0.1807
    19 C2     *200      -0.0002   -0.0012   -0.0004    0.0035   -0.0012   -0.0022   -0.0074   -0.0006   -0.0112    0.0012
    20 C2     *110       0.0003   -0.0015   -0.0002   -0.0159    0.0081    0.0153    0.0032   -0.0124    0.0077    0.0031
    21 C2     *020      -0.0004   -0.0007   -0.0004    0.0067   -0.0034   -0.0062    0.0074    0.0020    0.0105   -0.0029
    22 C2     *002      -0.0001   -0.0018   -0.0005   -0.0031    0.0019    0.0037   -0.0011   -0.0059   -0.0003   -0.0000
    23 H3     1s        -0.0002   -0.0005    0.0009    0.0048    0.3076   -0.0120    0.0061   -0.0483    0.0008   -0.0001
    24 H3     *s        -0.0010    0.0008   -0.0006    0.0154    0.1385   -0.0061    0.0040   -0.0551    0.0089    0.0035
    25 C4     1s         0.9952   -0.0089   -0.0034   -0.2170   -0.0017   -0.0349    0.0207    0.0169    0.0120    0.0149
    26 C4     2s         0.0276   -0.0003   -0.0002    0.4170    0.0016    0.0697   -0.0477   -0.0273   -0.0280   -0.0343
    27 C4     *s        -0.0074    0.0021    0.0002    0.2778    0.0599    0.0188    0.0183   -0.1424   -0.0681   -0.0217
    28 C4     2px       -0.0004    0.0005    0.0000    0.1218    0.0031    0.2481   -0.5237    0.0342   -0.0383   -0.0712
    29 C4     *px        0.0011   -0.0005   -0.0002    0.0099   -0.0135    0.0732   -0.1942    0.0456   -0.0160   -0.0581
    30 C4     2py        0.0005   -0.0008   -0.0001    0.0299    0.0029   -0.3899   -0.2075   -0.0460   -0.0160   -0.0398
    31 C4     *py       -0.0002    0.0006    0.0002   -0.0081    0.0246   -0.1609   -0.0917   -0.0663   -0.0273   -0.0376
    32 C4     *200      -0.0010   -0.0003   -0.0001    0.0126    0.0008    0.0056   -0.0091    0.0001   -0.0080   -0.0095
    33 C4     *110      -0.0001    0.0005    0.0001    0.0020   -0.0011    0.0167    0.0031   -0.0013    0.0076    0.0067
    34 C4     *020      -0.0013   -0.0005   -0.0001    0.0027    0.0012   -0.0044    0.0191   -0.0001    0.0093    0.0119
    35 C4     *002      -0.0015   -0.0001   -0.0001   -0.0100   -0.0000   -0.0005   -0.0008    0.0014   -0.0003   -0.0003
    36 H5     1s        -0.0001   -0.0001   -0.0001    0.1066   -0.0010    0.1495    0.2423    0.0019    0.0420    0.0582
    37 H5     *s         0.0019    0.0001    0.0001    0.0106    0.0032    0.0736    0.1749   -0.0051    0.0726    0.0638



      Molecular orbitals for symmetry species 2: b1 


      Orbital                 1         2         3         4         5         6         7         8         9        10
      Energy           -11.2530  -11.2116  -11.2054   -1.0267   -0.8551   -0.6982   -0.5602   -0.3805   -0.0000    0.0007
      Occ. No.           2.0000    2.0000    2.0000    2.0000    2.0000    2.0000    2.0000    1.9403    0.0578    0.0063

     1 C1     1s         0.0003    0.3478   -0.9326   -0.1580    0.1099   -0.0597    0.0283   -0.0010   -0.0005    0.1422
     2 C1     2s         0.0004    0.0085   -0.0265    0.2843   -0.2057    0.1339   -0.0469    0.0045    0.0023   -0.8525
     3 C1     *s         0.0007    0.0005    0.0129    0.3437   -0.1891   -0.1148   -0.2048    0.0375   -0.0063   -1.2738
     4 C1     2px        0.0002   -0.0004   -0.0003    0.0880   -0.0108   -0.2383   -0.0962    0.3402   -0.5206   -0.3749
     5 C1     *px       -0.0004    0.0010    0.0024    0.0362    0.0166   -0.1750   -0.0840    0.2289   -0.2546   -0.4211
     6 C1     2py       -0.0003    0.0005    0.0004   -0.1195    0.0203    0.3273    0.1122    0.2479   -0.3872    0.5042
     7 C1     *py        0.0003   -0.0013   -0.0031   -0.0517   -0.0177    0.2390    0.0997    0.1449   -0.1816    0.5585
     8 C1     *200       0.0000   -0.0006    0.0012    0.0010   -0.0024    0.0052    0.0017    0.0112    0.0026    0.0359
     9 C1     *110      -0.0001   -0.0005    0.0010   -0.0194    0.0199   -0.0198    0.0014   -0.0062   -0.0010   -0.0687
    10 C1     *020       0.0001   -0.0004    0.0009    0.0072   -0.0073    0.0116    0.0001   -0.0111   -0.0029    0.0575
    11 C1     *002      -0.0000   -0.0007    0.0016   -0.0061    0.0055   -0.0020    0.0019    0.0005   -0.0002    0.0114
    12 C2     1s         0.0099    0.9321    0.3493   -0.1799   -0.0360    0.0754   -0.0563   -0.0053   -0.0032   -0.1417
    13 C2     2s         0.0004    0.0258    0.0110    0.3275    0.0861   -0.1430    0.1224    0.0164    0.0112    0.8682
    14 C2     *s         0.0068   -0.0093   -0.0128    0.2026    0.0391    0.0357    0.1742   -0.0004    0.0218    1.2256
    15 C2     2px       -0.0000    0.0002   -0.0002   -0.0731    0.1685    0.0945    0.1961    0.3384    0.5395   -0.3831
    16 C2     *px        0.0029   -0.0011    0.0014    0.0933    0.0254   -0.1480   -0.0771    0.2229    0.2678   -0.4501
    17 C2     2py        0.0001   -0.0002    0.0003    0.0819   -0.2461   -0.1303   -0.2340    0.2540    0.4035    0.5095
    18 C2     *py       -0.0030    0.0010   -0.0021   -0.1229   -0.0170    0.2034    0.0751    0.1032    0.2025    0.5808
    19 C2     *200      -0.0003   -0.0010   -0.0004   -0.0001    0.0017   -0.0011    0.0033   -0.0113    0.0021   -0.0389
    20 C2     *110       0.0004   -0.0016   -0.0002   -0.0191   -0.0140    0.0120   -0.0085    0.0036   -0.0007    0.0709
    21 C2     *020      -0.0005   -0.0006   -0.0003    0.0064    0.0098   -0.0021    0.0000    0.0122   -0.0025   -0.0604
    22 C2     *002      -0.0001   -0.0016   -0.0004   -0.0070   -0.0019    0.0042   -0.0006    0.0005   -0.0012   -0.0147
    23 H3     1s         0.0001    0.0004   -0.0008   -0.0622    0.0883   -0.2858   -0.0590   -0.0005    0.0017   -0.0963
    24 H3     *s         0.0003   -0.0010    0.0008   -0.0146    0.0238   -0.1286   -0.0302   -0.0042    0.0036    0.0387
    25 C4     1s         0.9959   -0.0098   -0.0035   -0.0575   -0.1470   -0.0459    0.0230   -0.0119   -0.0132    0.0395
    26 C4     2s         0.0286    0.0001   -0.0002    0.1172    0.2900    0.0842   -0.0504    0.0240    0.0289   -0.0828
    27 C4     *s        -0.0212    0.0021    0.0012   -0.0212    0.2843    0.2534    0.0665    0.0806    0.0193    0.1240
    28 C4     2px        0.0000    0.0003    0.0001   -0.0825   -0.2028   -0.0615    0.0263    0.0211    0.0200    0.0517
    29 C4     *px       -0.0021   -0.0022   -0.0012    0.0184   -0.0885   -0.0790   -0.0014    0.0669   -0.0264    0.0088
    30 C4     2py        0.0006   -0.0005   -0.0000    0.0484    0.0313   -0.0626    0.4177    0.0043   -0.0135   -0.1062
    31 C4     *py       -0.0049    0.0008    0.0014   -0.0632   -0.0033    0.0578    0.3437   -0.0388   -0.0347    0.0159
    32 C4     *200      -0.0007   -0.0006   -0.0001    0.0008   -0.0012    0.0006    0.0007   -0.0091   -0.0096    0.0079
    33 C4     *110      -0.0003    0.0007    0.0001   -0.0067   -0.0005    0.0067   -0.0470    0.0065    0.0094   -0.0012
    34 C4     *020      -0.0009   -0.0005   -0.0001    0.0061    0.0128    0.0060   -0.0055    0.0076    0.0094    0.0071
    35 C4     *002      -0.0013   -0.0001   -0.0000   -0.0027   -0.0069   -0.0022    0.0005   -0.0001   -0.0000    0.0033
    36 H5     1s        -0.0002   -0.0002   -0.0001    0.0385    0.1505    0.0920   -0.2855    0.0268    0.0410    0.0275
    37 H5     *s         0.0009   -0.0004    0.0001   -0.0008    0.0484    0.0598   -0.1877    0.0345    0.0403    0.0486



      Molecular orbitals for symmetry species 3: a2 


      Orbital                 1         2         3
      Energy            -0.4009    0.1388    0.4579
      Occ. No.           1.9425    0.1061    0.0450

     1 C1     2pz        0.3931   -0.4027    0.5331
     2 C1     *pz        0.2464   -0.2194    0.2437
     3 C1     *101       0.0136   -0.0001   -0.0041
     4 C1     *011      -0.0184    0.0010    0.0055
     5 C2     2pz        0.4210    0.2254   -0.6444
     6 C2     *pz        0.2428    0.0544   -0.3607
     7 C2     *101      -0.0117    0.0186    0.0082
     8 C2     *011       0.0128   -0.0252   -0.0114
     9 C4     2pz        0.0977    0.6488    0.5252
    10 C4     *pz        0.0668    0.4326    0.3992
    11 C4     *101      -0.0125   -0.0134    0.0036
    12 C4     *011       0.0117    0.0081   -0.0088



      Molecular orbitals for symmetry species 4: b2 


      Orbital                 1         2         3
      Energy            -0.4581   -0.3252    0.3700
      Occ. No.           1.9492    1.9019    0.0551

     1 C1     2pz        0.3293   -0.2743   -0.6384
     2 C1     *pz        0.2013   -0.2040   -0.3020
     3 C1     *101       0.0123   -0.0052    0.0043
     4 C1     *011      -0.0162    0.0067   -0.0051
     5 C2     2pz        0.3795   -0.1550    0.6796
     6 C2     *pz        0.2129   -0.1317    0.3444
     7 C2     *101      -0.0053    0.0207    0.0006
     8 C2     *011       0.0070   -0.0257   -0.0018
     9 C4     2pz        0.2582    0.4961   -0.1515
    10 C4     *pz        0.1400    0.3782   -0.1539
    11 C4     *101       0.0051    0.0304   -0.0240
    12 C4     *011       0.0123   -0.0035    0.0125
--

      Von Neumann Entropy (Root   1) =  1.04644


      Mulliken population analysis for root number:  1
      -----------------------------------------------


++    Molecular charges:
      ------------------

      Mulliken charges per centre and basis function type
      ---------------------------------------------------

                C1      C2      H3      C4      H5    
      1s       1.9964  1.9965  0.5023  1.9965  0.5267
      2s       0.6630  0.6699  0.0000  0.6648  0.0000
      2px      0.6676  0.6730  0.0000  0.7546  0.0000
      2pz      0.5929  0.6049  0.0000  0.5640  0.0000
      2py      0.7239  0.7286  0.0000  0.7043  0.0000
      *s       0.5497  0.3912  0.2118  0.4623  0.2526
      *px      0.4389  0.2616  0.0000  0.2038  0.0000
      *110     0.0112  0.0097  0.0000  0.0189  0.0000
      *020     0.0359  0.0275  0.0000  0.0253  0.0000
      *002    -0.0181 -0.0170  0.0000 -0.0186  0.0000
      *200     0.0113  0.0075  0.0000  0.0246  0.0000
      *pz      0.4043  0.3721  0.0000  0.4308  0.0000
      *py      0.4156  0.1008  0.0000  0.3255  0.0000
      *101     0.0030  0.0049  0.0000  0.0079  0.0000
      *011     0.0052  0.0077  0.0000  0.0023  0.0000
      Total    6.5008  5.8389  0.7140  6.1669  0.7793

      N-E     -0.5008  0.1611  0.2860 -0.1669  0.2207

      Total electronic charge=   40.000000

      Total            charge=   -0.000000
--



      Expectation values of various properties for root number:  1
      -----------------------------------------------------------


++    Molecular properties:
      ---------------------

      Charge (e):
                      =   -0.0000
      Dipole Moment (Debye):
      Origin of the operator (Ang)=    0.0000    0.0000    0.0000
                   X=  0.0000E+00               Y= -1.5278E-01               Z=  0.0000E+00           Total=  1.5278E-01
      Quadrupole Moment (Debye*Ang):
      Origin of the operator (Ang)=    0.0000    0.0248    0.0000
                  XX= -3.0225E+01              XY=  0.0000E+00              XZ=  0.0000E+00              YY= -2.6919E+01
                  YZ=  0.0000E+00              ZZ= -3.6828E+01
      In traceless form (Debye*Ang)
                  XX=  1.6489E+00              XY=  0.0000E+00              XZ=  0.0000E+00              YY=  6.6072E+00
                  YZ=  0.0000E+00              ZZ= -8.2561E+00
--


      Input file to MOLDEN was generated!

      Average orbitals are written to the RASORB file
      Natural orbitals for root   1 are written to the RASORB.1 file
      Spin density orbitals for root   1 are written to the SPDORB.1 file

--- Stop Module: rasscf at Tue Jul  2 11:57:49 2024 /rc=_RC_ALL_IS_WELL_ ---
*** files: reactant.rasscf.molden reactant.RasOrb.1 reactant.RasOrb reactant.SpdOrb.1 xmldump
    saved to directory /home/kenya/molcas_test/0625_re
--- Module rasscf spent 28 seconds ---

*** symbolic link created: INPORB -> reactant.RasOrb
--- Start Module: mckinley at Tue Jul  2 11:57:49 2024 ---

()()()()()()()()()()()()()()()()()()()()()()()()()()()()()()()()()()()()()()()()()()()()()()()()()()

                                             &MCKINLEY

                                   only a single process is used
                       available to each process: 2.0 GB of memory, 1 thread
                                            pid: 274862
()()()()()()()()()()()()()()()()()()()()()()()()()()()()()()()()()()()()()()()()()()()()()()()()()()


                     Threshold for contributions to the gradient or Hessian: 1.000E-07

 **************************************************************************************************************************
 *                                                                                                                        *
 *                 All data is written to disk, and could be accessed through the MCLR or RASSI program.                  *
 *                                                                                                                        *
 **************************************************************************************************************************
--- Stop Module: mckinley at Tue Jul  2 11:58:18 2024 /rc=_RC_INVOKED_OTHER_MODULE_ ---
*** files: xmldump
    saved to directory /home/kenya/molcas_test/0625_re
--- Module mckinley spent 28 seconds ---

*** symbolic link created: INPORB -> reactant.RasOrb
--- Start Module: mclr at Tue Jul  2 11:58:18 2024 ---

()()()()()()()()()()()()()()()()()()()()()()()()()()()()()()()()()()()()()()()()()()()()()()()()()()

                                               &MCLR

                                   only a single process is used
                       available to each process: 2.0 GB of memory, 1 thread
                                            pid: 274952
()()()()()()()()()()()()()()()()()()()()()()()()()()()()()()()()()()()()()()()()()()()()()()()()()()

 Ordinary integral handling
 OrdInt status: non-squared

++   Wave function specifications:
     -----------------------------

     Number of closed shell electrons             28
     Number of electrons in active shells         12
     Max number of holes in RAS1 space             0
     Max number of electrons in RAS3 space         0
     Number of inactive orbitals                  14
     Number of active orbitals                    12
     Number of secondary orbitals                 72
     Spin quantum number                         0.0
     State symmetry                                1
     Number of CI roots                            1
     States considered                             1
     Weights                                   1.000

     Symmetry species                              1     2     3     4
     Skipped sym. species                          0     0     0     0
     Frozen orbitals                               0     0     0     0
     Inactive orbitals                             7     7     0     0
     Active orbitals                               3     3     3     3
     RAS1 orbitals                                 0     0     0     0
     RAS2 orbitals                                 3     3     3     3
     RAS3 orbitals                                 0     0     0     0
     Deleted orbitals                              0     0     0     0
     Number of basis functions                    37    37    12    12
     Number of orbitals                           37    37    12    12
     Number of configurations                  56928 56528 56528 56528
     Number of combinations                   107334106672106672106672
     Natural orbitals are used in the last CI
     RASSCF state energy =           -229.5575672897
     Size of explicit Hamiltonian in PCG:        100
--

     Convergence threshold=               1.0000E-04
     Max number of iterations in PCG:            200

++   Perturbation specifications:
     ----------------------------

     Number of perturbations in each symmetry     11  11   5   6
     Type of perturbation:                         Hessian         
--

++   Perturbations:
     --------------

     -------------------------------------
      No.    Symmetry    Center Direction 
     -------------------------------------
       1       a1           C1         x
       2       a1           C1         y
       3       a1           C2         x
       4       a1           C2         y
       5       a1           H3         x
       6       a1           H3         y
       7       a1           C4         x
       8       a1           C4         y
       9       a1           H5         x
      10       a1           H5         y
      11       a1           MLTPL  1 Y
      12       b1           C1         x
      13       b1           C1         y
      14       b1           C2         x
      15       b1           C2         y
      16       b1           H3         x
      17       b1           H3         y
      18       b1           C4         x
      19       b1           C4         y
      20       b1           H5         x
      21       b1           H5         y
      22       b1           MLTPL  1 X
      23       a2           C1         z
      24       a2           C2         z
      25       a2           H3         z
      26       a2           C4         z
      27       a2           H5         z
      28       b2           C1         z
      29       b2           C2         z
      30       b2           H3         z
      31       b2           C4         z
      32       b2           H5         z
      33       b2           MLTPL  1 Z
     -------------------------------------
--


     Linear response function is computed for root no. =   1

 Process perturbation number                     1
      Perturbation no:    1 converged in   15 steps.

 Process perturbation number                     2
      Perturbation no:    2 converged in   15 steps.

 Process perturbation number                     3
      Perturbation no:    3 converged in   15 steps.

 Process perturbation number                     4
      Perturbation no:    4 converged in   15 steps.

 Process perturbation number                     5
      Perturbation no:    5 converged in   12 steps.

 Process perturbation number                     6
      Perturbation no:    6 converged in   12 steps.

 Process perturbation number                     7
      Perturbation no:    7 converged in   14 steps.

 Process perturbation number                     8
      Perturbation no:    8 converged in   13 steps.

 Process perturbation number                     9
      Perturbation no:    9 converged in   12 steps.

 Process perturbation number                    10
      Perturbation no:   10 converged in   12 steps.

 Process perturbation number                    11
      Perturbation no:   11 converged in   16 steps.

 Process perturbation number                    12
      Perturbation no:   12 converged in   18 steps.

 Process perturbation number                    13
      Perturbation no:   13 converged in   20 steps.

 Process perturbation number                    14
      Perturbation no:   14 converged in   21 steps.

 Process perturbation number                    15
      Perturbation no:   15 converged in   18 steps.

 Process perturbation number                    16
      Perturbation no:   16 converged in   16 steps.

 Process perturbation number                    17
      Perturbation no:   17 converged in   17 steps.

 Process perturbation number                    18
      Perturbation no:   18 converged in   19 steps.

 Process perturbation number                    19
      Perturbation no:   19 converged in   20 steps.

 Process perturbation number                    20
      Perturbation no:   20 converged in   16 steps.

 Process perturbation number                    21
      Perturbation no:   21 converged in   17 steps.

 Process perturbation number                    22
      Perturbation no:   22 converged in   22 steps.

 Process perturbation number                    23
      Perturbation no:   23 converged in   15 steps.

 Process perturbation number                    24
      Perturbation no:   24 converged in   15 steps.

 Process perturbation number                    25
      Perturbation no:   25 converged in   12 steps.

 Process perturbation number                    26
      Perturbation no:   26 converged in   14 steps.

 Process perturbation number                    27
      Perturbation no:   27 converged in   12 steps.

 Process perturbation number                    28
      Perturbation no:   28 converged in   16 steps.

 Process perturbation number                    29
      Perturbation no:   29 converged in   13 steps.

 Process perturbation number                    30
      Perturbation no:   30 converged in   13 steps.

 Process perturbation number                    31
      Perturbation no:   31 converged in   14 steps.

 Process perturbation number                    32
      Perturbation no:   32 converged in   12 steps.

 Process perturbation number                    33
      Perturbation no:   33 converged in   16 steps.


      ************************************
      *                                  *
      * Harmonic frequencies in cm-1     *
      * Intensities in km/mole           *
      *                                  *
      * No correction due to curvilinear *
      * representations has been done    *
      *                                  *
      ************************************


    Symmetry a1 
   ==============

                        1         2         3         4         5         6

     Frequency:      i157.61     i0.21    366.28    630.15    924.18   1352.35                                          

     Intensity:    3.521E-01 1.164E-08 2.784E+00 2.596E+01 7.147E+00 1.158E-03
     Red. mass:      4.57310   7.60347   9.56742   1.17643   6.37797   1.09518

     C1         x   -0.34147   0.00004   0.10236  -0.07082  -0.15774  -0.01393
     C1         y   -0.16897  -0.31622  -0.11070  -0.04824   0.20755   0.01763
     C2         x   -0.00065   0.00001   0.54722   0.01246  -0.07541   0.01870
     C2         y    0.08921  -0.31624   0.23377   0.01302   0.16494   0.02388
     H3         x    0.49716  -0.00008   0.01875  -0.56279   0.20346   0.02153
     H3         y   -0.28385  -0.31619  -0.20229   0.41903   0.19979   0.01740
     C4         x    0.00370  -0.00000   0.02037  -0.00144  -0.08922   0.04801
     C4         y    0.09512  -0.31625  -0.11004  -0.00005  -0.36805  -0.01561
     H5         x   -0.00628  -0.00001  -0.25907  -0.00338  -0.33249   0.62384
     H5         y    0.10025  -0.31624   0.04754   0.00107  -0.25272  -0.32570


                        7         8         9        10

     Frequency:      1810.87   2383.21   3377.29   3647.78                                                              

     Intensity:    2.708E+00 5.749E+00 2.360E+01 4.305E+01
     Red. mass:      6.48676   5.94545   1.09538   1.16410

     C1         x    0.04126  -0.16302  -0.00003   0.04825
     C1         y   -0.05845   0.21552   0.00014  -0.06505
     C2         x    0.01307   0.22911   0.00085  -0.01404
     C2         y    0.02688  -0.30571  -0.00103   0.01870
     H3         x   -0.04628   0.31423   0.00176   0.41640
     H3         y   -0.09035   0.41921   0.00294   0.56524
     C4         x   -0.48768  -0.05362   0.03499   0.00020
     C4         y    0.07330   0.05243   0.05250  -0.00122
     H5         x    0.27434  -0.00023  -0.33880   0.00120
     H5         y   -0.40646   0.03039  -0.61743   0.00131



    Symmetry b1 
   ==============

                        1         2         3         4         5         6

     Frequency:      i173.79     i0.15     89.84    628.07    751.06   1077.93                                          

     Intensity:    6.663E-01 1.770E-08 1.207E+00 5.418E+01 3.281E+00 9.540E+00
     Red. mass:      4.59684   7.60307   6.40719   1.19344   6.70467   3.12704

     C1         x   -0.24739  -0.31623   0.04807   0.06613  -0.11340   0.09002
     C1         y   -0.24422  -0.00001  -0.20437   0.05668   0.15081  -0.11539
     C2         x    0.14401  -0.31622  -0.16402  -0.02539  -0.26079  -0.01463
     C2         y    0.05070   0.00000  -0.36333  -0.01253  -0.00756  -0.11406
     H3         x   -0.42805  -0.31623   0.11616  -0.56820   0.03388   0.11780
     H3         y    0.37724   0.00001   0.15435   0.41063  -0.27175   0.11519
     C4         x    0.13233  -0.31622   0.07836   0.00623   0.34075  -0.04984
     C4         y    0.03981   0.00000  -0.19097   0.00398   0.19837   0.24345
     H5         x    0.08358  -0.31623   0.33144   0.00887   0.36419  -0.42203
     H5         y    0.06499   0.00000  -0.32747   0.00244   0.18232   0.44536


                        7         8         9        10

     Frequency:      1548.30   2393.64   3355.87   3648.01                                                              

     Intensity:    5.320E+00 1.675E+00 4.490E-01 3.351E+01
     Red. mass:      1.41484   5.89043   1.08431   1.16531

     C1         x   -0.01580  -0.16244  -0.00003   0.04838
     C1         y    0.02156   0.21502  -0.00011  -0.06525
     C2         x   -0.01039   0.22770  -0.00028  -0.01424
     C2         y   -0.00804  -0.30553   0.00030   0.01900
     H3         x   -0.01684  -0.31564  -0.00013  -0.41634
     H3         y   -0.02942  -0.42118   0.00009  -0.56524
     C4         x    0.08081  -0.03989  -0.02785   0.00086
     C4         y   -0.10534   0.05183  -0.05199  -0.00115
     H5         x   -0.63357   0.01357   0.33541  -0.00037
     H5         y    0.28094   0.02642   0.61970  -0.00079



    Symmetry a2 
   ==============

                        1         2         3         4         5

     Frequency:      i159.32    i40.86    536.79    605.37    993.76                                                    

     C1         z    0.33625  -0.25151   0.05616  -0.08292  -0.00056
     C2         z   -0.13411  -0.38638  -0.31406   0.00244   0.00512
     H3         z   -0.55072   0.20194   0.09176  -0.70043  -0.00323
     C4         z   -0.13399  -0.25591   0.35314   0.02535   0.09058
     H5         z   -0.21840  -0.42566   0.51487   0.04322  -0.70125



    Symmetry b2 
   ==============

                        1         2         3         4         5

     Frequency:      i177.91     i0.10    251.89    610.02    773.24                                                    

     Intensity:    1.283E-01 1.384E-07 6.157E+00 9.276E+01 2.763E+01
     Red. mass:      4.49641   7.60190   3.13498   1.17596   1.40613

     C1         z    0.31183   0.31620   0.04753  -0.08511   0.00353
     C2         z   -0.10887   0.31618  -0.26542   0.01950  -0.06586
     H3         z    0.51361   0.31627   0.12467   0.70135   0.03825
     C4         z   -0.22270   0.31622   0.15508   0.00490   0.11733
     H5         z   -0.27843   0.31627   0.62265   0.02136  -0.69312



++ Thermochemistry

 *********************
 *                   *
 *  THERMOCHEMISTRY  *
 *                   *
 *********************

 Mass-centered Coordinates (Angstrom):
 ********************************************************
 Label        X           Y           Z          Mass  
 --------------------------------------------------------
 C1         0.000000    1.026232   -2.208437     12.00000
 C2         0.000000    0.079526   -1.490589     12.00000
 H3         0.000000    1.876955    2.835528      1.00783
 C4         0.000000   -1.092470   -0.664232     12.00000
 H5         0.000000   -2.035167   -1.181198      1.00783
 C1         0.000000    1.026232    2.208437     12.00000
 C2         0.000000    0.079526    1.490589     12.00000
 H3         0.000000    1.876955   -2.835528      1.00783
 C4         0.000000   -1.092470    0.664232     12.00000
 H5         0.000000   -2.035167    1.181198      1.00783
 --------------------------------------------------------
 Molecular mass:   76.031300
 Rotational Constants (cm-1):    0.0626    0.0843    0.2425
 Rotational Constants (GHz) :    1.8752    2.5271    7.2695
 Rotational temperatures (K):    0.0900    0.1213    0.3489
 Rotational Symmetry factor:  1
  *** Warning:                     2  vibrational contributions removed.
 Vibrational temperature (K): 
    526.99   906.65  1329.69  1945.72  2605.44
   3428.90  4859.17  5248.34   129.26   903.65
   1080.61  1550.90  2227.66  3443.92  4828.35
   5248.67   772.32   871.00  1429.80   362.41
    877.68  1112.51
 Number of trans. and rot. degrees of freedom:  6
 ZPVE                45.397 kcal/mol      0.072345 au.
 ZPVE corrected energy                 -229.485222 au.

 *****************************************************
 Temperature =     0.00 Kelvin, Pressure =   1.00 atm
 -----------------------------------------------------
 Molecular Partition Function and Molar Entropy:
                        q/V (M**-3)    S(kcal/mol*K)
 Electronic            1.000000E+00        0.000
 Translational         1.000000E+00        0.000
 Rotational            1.000000E+00        2.981
 Vibrational           1.000000E+00        0.000
 TOTAL                 1.000000E+00        2.981

 Thermal contributions to INTERNAL ENERGY:
 Electronic           0.000 kcal/mol      0.000000 au.
 Translational        0.000 kcal/mol      0.000000 au.
 Rotational           0.000 kcal/mol      0.000000 au.
 Vibrational         45.397 kcal/mol      0.072345 au.
 TOTAL               45.397 kcal/mol      0.072345 au.

 Thermal contributions to
 ENTHALPY            45.397 kcal/mol      0.072345 au.
 GIBBS FREE ENERGY   45.397 kcal/mol      0.072345 au.

 Sum of energy and thermal contributions
 INTERNAL ENERGY                       -229.485222 au.
 ENTHALPY                              -229.485222 au.
 GIBBS FREE ENERGY                     -229.485222 au.
 -----------------------------------------------------

 *****************************************************
 Temperature =   100.00 Kelvin, Pressure =   1.00 atm
 -----------------------------------------------------
 Molecular Partition Function and Molar Entropy:
                        q/V (M**-3)    S(kcal/mol*K)
 Electronic            1.000000E+00        0.000
 Translational         3.939934E+27       33.474
 Rotational            2.872300E+04       23.380
 Vibrational           8.710242-100        1.945
 TOTAL                 9.857096E-68       58.799

 Thermal contributions to INTERNAL ENERGY:
 Electronic           0.000 kcal/mol      0.000000 au.
 Translational        0.298 kcal/mol      0.000475 au.
 Rotational           0.298 kcal/mol      0.000475 au.
 Vibrational         45.521 kcal/mol      0.072543 au.
 TOTAL               46.118 kcal/mol      0.073493 au.

 Thermal contributions to
 ENTHALPY            46.316 kcal/mol      0.073810 au.
 GIBBS FREE ENERGY   40.436 kcal/mol      0.064439 au.

 Sum of energy and thermal contributions
 INTERNAL ENERGY                       -229.484074 au.
 ENTHALPY                              -229.483758 au.
 GIBBS FREE ENERGY                     -229.493128 au.
 -----------------------------------------------------

 *****************************************************
 Temperature =   273.15 Kelvin, Pressure =   1.00 atm
 -----------------------------------------------------
 Molecular Partition Function and Molar Entropy:
                        q/V (M**-3)    S(kcal/mol*K)
 Electronic            1.000000E+00        0.000
 Translational         1.778651E+28       38.466
 Rotational            1.296677E+05       26.376
 Vibrational           2.642015E-36        8.433
 TOTAL                 6.093370E-03       73.275

 Thermal contributions to INTERNAL ENERGY:
 Electronic           0.000 kcal/mol      0.000000 au.
 Translational        0.814 kcal/mol      0.001298 au.
 Rotational           0.814 kcal/mol      0.001298 au.
 Vibrational         46.771 kcal/mol      0.074534 au.
 TOTAL               48.399 kcal/mol      0.077129 au.

 Thermal contributions to
 ENTHALPY            48.942 kcal/mol      0.077994 au.
 GIBBS FREE ENERGY   28.927 kcal/mol      0.046098 au.

 Sum of energy and thermal contributions
 INTERNAL ENERGY                       -229.480438 au.
 ENTHALPY                              -229.479573 au.
 GIBBS FREE ENERGY                     -229.511469 au.
 -----------------------------------------------------

 *****************************************************
 Temperature =   298.15 Kelvin, Pressure =   1.00 atm
 -----------------------------------------------------
 Molecular Partition Function and Molar Entropy:
                        q/V (M**-3)    S(kcal/mol*K)
 Electronic            1.000000E+00        0.000
 Translational         2.028342E+28       38.901
 Rotational            1.478707E+05       26.637
 Vibrational           3.713387E-33        9.533
 TOTAL                 1.113765E+01       75.071

 Thermal contributions to INTERNAL ENERGY:
 Electronic           0.000 kcal/mol      0.000000 au.
 Translational        0.889 kcal/mol      0.001416 au.
 Rotational           0.889 kcal/mol      0.001416 au.
 Vibrational         47.085 kcal/mol      0.075035 au.
 TOTAL               48.863 kcal/mol      0.077868 au.

 Thermal contributions to
 ENTHALPY            49.455 kcal/mol      0.078812 au.
 GIBBS FREE ENERGY   27.073 kcal/mol      0.043143 au.

 Sum of energy and thermal contributions
 INTERNAL ENERGY                       -229.479700 au.
 ENTHALPY                              -229.478755 au.
 GIBBS FREE ENERGY                     -229.514424 au.
 -----------------------------------------------------

 *****************************************************
 Temperature =   323.15 Kelvin, Pressure =   1.00 atm
 -----------------------------------------------------
 Molecular Partition Function and Molar Entropy:
                        q/V (M**-3)    S(kcal/mol*K)
 Electronic            1.000000E+00        0.000
 Translational         2.288733E+28       39.301
 Rotational            1.668538E+05       26.877
 Vibrational           1.775210E-30       10.644
 TOTAL                 6.779241E+03       76.822

 Thermal contributions to INTERNAL ENERGY:
 Electronic           0.000 kcal/mol      0.000000 au.
 Translational        0.963 kcal/mol      0.001535 au.
 Rotational           0.963 kcal/mol      0.001535 au.
 Vibrational         47.430 kcal/mol      0.075585 au.
 TOTAL               49.357 kcal/mol      0.078655 au.

 Thermal contributions to
 ENTHALPY            49.999 kcal/mol      0.079678 au.
 GIBBS FREE ENERGY   25.174 kcal/mol      0.040117 au.

 Sum of energy and thermal contributions
 INTERNAL ENERGY                       -229.478912 au.
 ENTHALPY                              -229.477889 au.
 GIBBS FREE ENERGY                     -229.517450 au.
 -----------------------------------------------------

 *****************************************************
 Temperature =   373.15 Kelvin, Pressure =   1.00 atm
 -----------------------------------------------------
 Molecular Partition Function and Molar Entropy:
                        q/V (M**-3)    S(kcal/mol*K)
 Electronic            1.000000E+00        0.000
 Translational         2.839972E+28       40.016
 Rotational            2.070404E+05       27.306
 Vibrational           3.801825E-26       12.870
 TOTAL                 2.235431E+08       80.191

 Thermal contributions to INTERNAL ENERGY:
 Electronic           0.000 kcal/mol      0.000000 au.
 Translational        1.112 kcal/mol      0.001773 au.
 Rotational           1.112 kcal/mol      0.001773 au.
 Vibrational         48.205 kcal/mol      0.076820 au.
 TOTAL               50.430 kcal/mol      0.080365 au.

 Thermal contributions to
 ENTHALPY            51.171 kcal/mol      0.081547 au.
 GIBBS FREE ENERGY   21.248 kcal/mol      0.033861 au.

 Sum of energy and thermal contributions
 INTERNAL ENERGY                       -229.477202 au.
 ENTHALPY                              -229.476021 au.
 GIBBS FREE ENERGY                     -229.523707 au.
 -----------------------------------------------------

 *****************************************************
 Temperature =   473.15 Kelvin, Pressure =   1.00 atm
 -----------------------------------------------------
 Molecular Partition Function and Molar Entropy:
                        q/V (M**-3)    S(kcal/mol*K)
 Electronic            1.000000E+00        0.000
 Translational         4.054966E+28       41.195
 Rotational            2.956161E+05       28.013
 Vibrational           4.448982E-20       17.225
 TOTAL                 5.333053E+14       86.434

 Thermal contributions to INTERNAL ENERGY:
 Electronic           0.000 kcal/mol      0.000000 au.
 Translational        1.410 kcal/mol      0.002248 au.
 Rotational           1.410 kcal/mol      0.002248 au.
 Vibrational         50.047 kcal/mol      0.079754 au.
 TOTAL               52.867 kcal/mol      0.084250 au.

 Thermal contributions to
 ENTHALPY            53.808 kcal/mol      0.085748 au.
 GIBBS FREE ENERGY   12.911 kcal/mol      0.020575 au.

 Sum of energy and thermal contributions
 INTERNAL ENERGY                       -229.473318 au.
 ENTHALPY                              -229.471819 au.
 GIBBS FREE ENERGY                     -229.536992 au.
 -----------------------------------------------------
--


 ************************************
 *                                  *
 *       Polarizabilities           *
 *                                  *
 ************************************



       67.5820437092044273
       -0.0000000000000000     56.0976204620059633
       -0.0000000000000000     -0.0000000000000000     20.0351496580697379

++    Isotopic shifts:
      ----------------



 ****************************************
 *                                      *
 * Isotope shifted frequencies in cm-1  *
 *                                      *
 ****************************************


  Single substitutions:
  -----------------------

 Masses:
 =======
  13  12  12  12   1   1  12  12   1   1


 Frequencies:
 ============
                         1         2         3         4         5         6

            Freq.    i176.28   i171.90   i157.14   i154.96    i40.68     i0.21                                               


                         7         8         9        10        11        12

            Freq.      i0.15     i0.10     89.54    251.80    365.85    536.65                                               


                        13        14        15        16        17        18

            Freq.     603.16    608.84    625.15    629.38    749.05    773.23                                               


                        19        20        21        22        23        24

            Freq.     919.36    993.76   1074.47   1352.05   1547.93   1810.17                                               


                        25        26        27        28        29        30

            Freq.    2359.78   2389.35   3355.87   3377.29   3629.13   3647.89                                               


 Masses:
 =======
  14  12  12  12   1   1  12  12   1   1


 Frequencies:
 ============
                         1         2         3         4         5         6

            Freq.    i175.13   i170.63   i154.89   i152.15    i40.51     i0.21                                               


                         7         8         9        10        11        12

            Freq.      i0.15     i0.10     89.24    251.72    365.44    536.52                                               


                        13        14        15        16        17        18

            Freq.     600.67    608.40    622.08    629.25    747.05    773.23                                               


                        19        20        21        22        23        24

            Freq.     914.77    993.76   1071.46   1351.78   1547.58   1809.50                                               


                        25        26        27        28        29        30

            Freq.    2335.77   2388.92   3355.87   3377.29   3613.60   3647.89                                               


 Masses:
 =======
  12  12  13  12   1   1  12  12   1   1


 Frequencies:
 ============
                         1         2         3         4         5         6

            Freq.    i177.69   i173.36   i159.00   i157.48    i40.45     i0.21                                               


                         7         8         9        10        11        12

            Freq.      i0.15     i0.10     88.76    249.19    359.84    532.67                                               


                        13        14        15        16        17        18

            Freq.     605.37    609.93    627.87    630.08    747.48    772.15                                               


                        19        20        21        22        23        24

            Freq.     921.83    993.75   1075.77   1351.82   1548.22   1810.75                                               


                        25        26        27        28        29        30

            Freq.    2332.94   2388.89   3355.87   3377.29   3646.33   3647.90                                               


 Masses:
 =======
  12  12  14  12   1   1  12  12   1   1


 Frequencies:
 ============
                         1         2         3         4         5         6

            Freq.    i177.49   i172.97   i158.69   i157.35    i40.05     i0.21                                               


                         7         8         9        10        11        12

            Freq.      i0.15     i0.10     87.74    246.74    354.07    529.13                                               


                        13        14        15        16        17        18

            Freq.     605.37    609.86    627.68    630.02    744.35    771.25                                               


                        19        20        21        22        23        24

            Freq.     919.57    993.74   1073.85   1351.38   1548.14   1810.65                                               


                        25        26        27        28        29        30

            Freq.    2285.20   2388.67   3355.87   3377.28   3645.09   3647.90                                               


 Masses:
 =======
  12  12  12  12   2   1  12  12   1   1


 Frequencies:
 ============
                         1         2         3         4         5         6

            Freq.    i174.53   i169.94   i153.37   i151.28    i40.75     i0.21                                               


                         7         8         9        10        11        12

            Freq.      i0.15     i0.10     89.58    251.22    365.34    460.59                                               


                        13        14        15        16        17        18

            Freq.     477.97    536.99    607.72    629.09    748.22    773.12                                               


                        19        20        21        22        23        24

            Freq.     918.05    993.76   1073.21   1351.83   1547.53   1808.72                                               


                        25        26        27        28        29        30

            Freq.    2212.59   2388.49   2863.13   3355.87   3377.29   3647.89                                               


 Masses:
 =======
  12  12  12  12   3   1  12  12   1   1


 Frequencies:
 ============
                         1         2         3         4         5         6

            Freq.    i173.11   i168.43   i147.75   i145.02    i40.63     i0.21                                               


                         7         8         9        10        11        12

            Freq.      i0.15     i0.10     89.33    250.46    363.74    398.81                                               


                        13        14        15        16        17        18

            Freq.     414.85    536.95    607.71    629.08    745.57    773.09                                               


                        19        20        21        22        23        24

            Freq.     911.44    993.76   1068.44   1351.20   1546.30   1802.47                                               


                        25        26        27        28        29        30

            Freq.    1988.23   2388.36   2685.87   3355.87   3377.29   3647.89                                               


 Masses:
 =======
  12  12  12  12   1   1  13  12   1   1


 Frequencies:
 ============
                         1         2         3         4         5         6

            Freq.    i176.98   i173.44   i158.98   i157.46    i40.68     i0.21                                               


                         7         8         9        10        11        12

            Freq.      i0.15     i0.10     89.55    250.95    366.04    531.44                                               


                        13        14        15        16        17        18

            Freq.     605.22    610.01    628.05    630.15    742.39    769.73                                               


                        19        20        21        22        23        24

            Freq.     914.02    990.65   1068.22   1350.73   1538.88   1779.84                                               


                        25        26        27        28        29        30

            Freq.    2382.14   2392.94   3349.64   3372.90   3647.78   3648.00                                               


 Masses:
 =======
  12  12  12  12   1   1  14  12   1   1


 Frequencies:
 ============
                         1         2         3         4         5         6

            Freq.    i176.15   i173.10   i158.63   i157.31    i40.50     i0.21                                               


                         7         8         9        10        11        12

            Freq.      i0.15     i0.10     89.26    250.07    365.81    526.58                                               


                        13        14        15        16        17        18

            Freq.     605.11    610.01    628.04    630.15    733.93    766.76                                               


                        19        20        21        22        23        24

            Freq.     904.44    988.09   1060.15   1349.04   1529.91   1754.21                                               


                        25        26        27        28        29        30

            Freq.    2381.19   2392.47   3342.77   3370.79   3647.77   3648.00                                               


 Masses:
 =======
  12  12  12  12   1   1  12  12   2   1


 Frequencies:
 ============
                         1         2         3         4         5         6

            Freq.    i176.61   i173.58   i158.47   i157.44    i40.36     i0.21                                               


                         7         8         9        10        11        12

            Freq.      i0.15     i0.10     88.36    237.34    364.91    521.98                                               


                        13        14        15        16        17        18

            Freq.     604.59    609.85    628.04    630.15    667.53    739.75                                               


                        19        20        21        22        23        24

            Freq.     908.41    918.78    956.01   1165.43   1483.97   1793.05                                               


                        25        26        27        28        29        30

            Freq.    2382.34   2392.66   2488.23   3366.73   3647.78   3648.01                                               


 Masses:
 =======
  12  12  12  12   1   1  12  12   3   1


 Frequencies:
 ============
                         1         2         3         4         5         6

            Freq.    i175.68   i173.39   i157.69   i157.28    i39.89     i0.21                                               


                         7         8         9        10        11        12

            Freq.      i0.15     i0.10     86.98    225.08    363.47    503.79                                               


                        13        14        15        16        17        18

            Freq.     602.13    609.48    624.87    628.00    630.14    721.19                                               


                        19        20        21        22        23        24

[...]
       14   1    4    1  -229.56058208   -2.06E-09  -5.43E-05    8  18 1  6.37E-06   0.00   1.40    QN   YES    0:00:00
      Convergence after 14 iterations
       15   1    4    1  -229.56058208   -6.16E-10  -5.43E-05    8  21 2 -1.54E-06   0.00   1.40    QN   YES    0:00:01

      ************************************************************************************************************************
                                                      Wave function printout:
                       occupation of active orbitals, and spin coupling of open shells (u,d: Spin up or down)
      ************************************************************************************************************************

      Note: transformation to natural orbitals
      has been made, which may change the order of the CSFs.

      printout of CI-coefficients larger than  0.05 for root  1
      energy=    -229.560582
      conf/sym  111222333444     Coeff  Weight
         11436  222 000 200 220  -0.06384 0.00408
         11507  220 200 220 200  -0.16676 0.02781
         11508  220 200 2ud 200  -0.06262 0.00392
         11514  220 200 2ud ud0   0.08981 0.00807
         11528  220 200 200 220   0.91456 0.83643
         11550  220 200 ud0 2ud   0.06775 0.00459
         11567  220 200 uu0 d2d  -0.05463 0.00298
         11568  220 200 u0u d2d   0.06321 0.00400
         11597  220 200 000 222  -0.05548 0.00308
         11621  2ud 200 ud0 220  -0.05019 0.00252
         11653  2ud 200 200 u2d   0.05212 0.00272
         11804  202 200 200 220  -0.06174 0.00381
         12081  220 ud0 ud0 220  -0.05138 0.00264
         12113  220 ud0 200 u2d   0.05395 0.00291
         12172  2ud ud0 200 220  -0.06890 0.00475
         12632  2uu dd0 200 220   0.10460 0.01094
         12908  220 020 200 220  -0.06447 0.00416
         13460  200 220 200 220  -0.05965 0.00356
         19936  22u d00 u00 22d  -0.05908 0.00349
         20434  2u0 2d0 u00 22d   0.05779 0.00334

      Natural orbitals and occupation numbers for root  1
      sym 1:   1.993552   1.939336   0.062566
      sym 2:   1.935951   0.061960   0.006762
      sym 3:   1.938490   0.115154   0.047719
      sym 4:   1.946136   1.893390   0.058984

      ************************************************************************************************************************
      *                                                                                                                      *
      *                                                    Final results                                                     *
      *                                                                                                                      *
      ************************************************************************************************************************


++    Wave function specifications:
      -----------------------------

      Number of closed shell electrons          28
      Number of electrons in active shells      12
      Max number of holes in RAS1 space          0
      Max nr of electrons in RAS3 space          0
      Number of inactive orbitals               14
      Number of active orbitals                 12
      Number of secondary orbitals              72
      Spin quantum number                      0.0
      State symmetry                             1
--

++    Orbital specifications:
      -----------------------

      Symmetry species                           1   2   3   4
                                                a1  b1  a2  b2
      Frozen orbitals                            0   0   0   0
      Inactive orbitals                          7   7   0   0
      Active orbitals                            3   3   3   3
      RAS1 orbitals                              0   0   0   0
      RAS2 orbitals                              3   3   3   3
      RAS3 orbitals                              0   0   0   0
      Secondary orbitals                        27  27   9   9
      Deleted orbitals                           0   0   0   0
      Number of basis functions                 37  37  12  12
--

++    CI expansion specifications:
      ----------------------------

      Number of CSFs                         56928
      Number of determinants                107334
      Number of root(s) required                 1
      CI root used                               1
      highest root included in the CI            1
      Root passed to geometry opt.               1
--

++    Final optimization conditions:
      ------------------------------

      Average CI energy                            -229.56058208
      RASSCF energy for state  1                   -229.56058208
      Super-CI energy                                -0.00000000
      RASSCF energy change                            0.00000000
      Max change in MO coefficients              -1.476E-04
      Max non-diagonal density matrix element    -5.430E-05
      Maximum BLB matrix element                 -1.541E-06
      (orbital pair   8,  21 in symmetry   2)
      Norm of electronic gradient            6.038E-06
--


      Final state energy(ies):
      ------------------------

::    RASSCF root number  1 Total energy:   -229.56058208

++    Molecular orbitals:
      -------------------

      Pseudonatural active orbitals and approximate occupation numbers




      Molecular orbitals for symmetry species 1: a1 


      Orbital                 1         2         3         4         5         6         7         8         9        10
      Energy           -11.2589  -11.2181  -11.2119   -1.0847   -0.7518   -0.7322   -0.6313   -0.9169   -0.0019   -0.0003
      Occ. No.           2.0000    2.0000    2.0000    2.0000    2.0000    2.0000    2.0000    1.9936    1.9393    0.0626

     1 C1     1s        -0.0001    0.2883   -0.9526    0.0030   -0.1391   -0.0095    0.0045   -0.1469    0.0024    0.0018
     2 C1     2s         0.0004    0.0073   -0.0270   -0.0082    0.2761    0.0186   -0.0082    0.2613   -0.0079   -0.0041
     3 C1     *s        -0.0034    0.0017    0.0135    0.0326    0.1386    0.0847   -0.0279    0.3001    0.0306    0.0108
     4 C1     2px        0.0003   -0.0002   -0.0005   -0.0090   -0.1857    0.0283    0.0064    0.1913    0.3224   -0.5256
     5 C1     *px       -0.0016    0.0010    0.0024    0.0143   -0.1297    0.0308    0.0086    0.0726    0.2276   -0.2472
     6 C1     2py       -0.0002    0.0001    0.0005    0.0075    0.2533   -0.0283    0.0266   -0.2589    0.2437   -0.3807
     7 C1     *py        0.0021   -0.0017   -0.0033   -0.0235    0.1732   -0.0368    0.0265   -0.0978    0.1378   -0.1933
     8 C1     *200       0.0001   -0.0005    0.0012   -0.0002    0.0055   -0.0002   -0.0009   -0.0010    0.0104    0.0031
     9 C1     *110      -0.0001   -0.0004    0.0010    0.0024   -0.0300   -0.0024    0.0005   -0.0135   -0.0060   -0.0010
    10 C1     *020       0.0001   -0.0004    0.0009   -0.0008    0.0148    0.0005    0.0014    0.0025   -0.0105   -0.0026
    11 C1     *002       0.0000   -0.0006    0.0016    0.0007   -0.0055   -0.0010    0.0002   -0.0063   -0.0004   -0.0004
    12 C2     1s         0.0096    0.9521    0.2899   -0.0659    0.0173    0.1101   -0.0316   -0.1489   -0.0029   -0.0026
    13 C2     2s         0.0003    0.0264    0.0088    0.1306   -0.0425   -0.2205    0.0616    0.2708    0.0036    0.0194
    14 C2     *s         0.0066   -0.0080   -0.0110    0.0272    0.0729   -0.2124    0.0801    0.1293    0.0010   -0.0045
    15 C2     2px       -0.0001   -0.0003   -0.0002    0.0869    0.0194   -0.1546    0.0121   -0.1950    0.3261    0.5178
    16 C2     *px       -0.0008    0.0002    0.0028    0.0349   -0.0610    0.0022    0.0201    0.0440    0.2331    0.2604
    17 C2     2py        0.0003    0.0000    0.0001   -0.1138   -0.0220    0.2073   -0.0909    0.2547    0.2452    0.3823
    18 C2     *py        0.0011    0.0003   -0.0036   -0.0471    0.0836    0.0130   -0.0003   -0.0673    0.1187    0.1800
    19 C2     *200      -0.0002   -0.0012   -0.0003    0.0032   -0.0014   -0.0020   -0.0072   -0.0004   -0.0109    0.0017
    20 C2     *110       0.0003   -0.0014   -0.0002   -0.0156    0.0077    0.0150    0.0030   -0.0122    0.0073    0.0035
    21 C2     *020      -0.0004   -0.0007   -0.0002    0.0067   -0.0034   -0.0059    0.0074    0.0019    0.0102   -0.0033
    22 C2     *002      -0.0001   -0.0017   -0.0004   -0.0032    0.0016    0.0037   -0.0011   -0.0058   -0.0003   -0.0002
    23 H3     1s        -0.0002   -0.0004    0.0009    0.0047    0.3071   -0.0149    0.0069   -0.0496    0.0009   -0.0009
    24 H3     *s        -0.0009    0.0008   -0.0007    0.0142    0.1377   -0.0081    0.0055   -0.0560    0.0095    0.0031
    25 C4     1s         0.9953   -0.0097   -0.0030   -0.2150   -0.0021   -0.0356    0.0212    0.0169    0.0120    0.0151
    26 C4     2s         0.0275   -0.0003   -0.0001    0.4149    0.0026    0.0712   -0.0490   -0.0282   -0.0280   -0.0346
    27 C4     *s        -0.0076    0.0023    0.0000    0.2834    0.0565    0.0277    0.0083   -0.1298   -0.0691   -0.0262
    28 C4     2px       -0.0004    0.0005    0.0000    0.1137    0.0056    0.2402   -0.5255    0.0344   -0.0389   -0.0707
    29 C4     *px        0.0011   -0.0006   -0.0002    0.0096   -0.0115    0.0713   -0.1978    0.0426   -0.0178   -0.0583
    30 C4     2py        0.0005   -0.0007   -0.0001    0.0308   -0.0000   -0.3910   -0.2025   -0.0467   -0.0159   -0.0404
    31 C4     *py       -0.0003    0.0007    0.0002   -0.0062    0.0223   -0.1601   -0.0921   -0.0621   -0.0277   -0.0389
    32 C4     *200      -0.0011   -0.0003   -0.0000    0.0125    0.0008    0.0057   -0.0095    0.0002   -0.0081   -0.0096
    33 C4     *110      -0.0001    0.0005    0.0001    0.0018   -0.0009    0.0175    0.0033   -0.0011    0.0078    0.0070
    34 C4     *020      -0.0012   -0.0005   -0.0001    0.0033    0.0012   -0.0040    0.0188   -0.0002    0.0094    0.0119
    35 C4     *002      -0.0015   -0.0001   -0.0000   -0.0100   -0.0000   -0.0005   -0.0008    0.0013   -0.0003   -0.0003
    36 H5     1s        -0.0001   -0.0001   -0.0001    0.1076    0.0002    0.1540    0.2399    0.0020    0.0426    0.0588
    37 H5     *s         0.0019    0.0001    0.0001    0.0119    0.0037    0.0771    0.1733   -0.0041    0.0731    0.0649



      Molecular orbitals for symmetry species 2: b1 


      Orbital                 1         2         3         4         5         6         7         8         9        10
      Energy           -11.2574  -11.2181  -11.2120   -1.0205   -0.8565   -0.6993   -0.5643   -0.3741   -0.0001    0.0008
      Occ. No.           2.0000    2.0000    2.0000    2.0000    2.0000    2.0000    2.0000    1.9360    0.0620    0.0068

     1 C1     1s         0.0002    0.2900   -0.9523   -0.1539    0.1132   -0.0588    0.0276   -0.0003   -0.0009   -0.1429
     2 C1     2s         0.0003    0.0069   -0.0267    0.2811   -0.2138    0.1305   -0.0465    0.0027    0.0044    0.8143
     3 C1     *s         0.0008    0.0007    0.0124    0.3107   -0.1818   -0.0783   -0.1845    0.0371    0.0023    1.2125
     4 C1     2px        0.0002   -0.0005   -0.0003    0.0835   -0.0090   -0.2364   -0.0995    0.3391   -0.5141    0.3697
     5 C1     *px       -0.0003    0.0010    0.0022    0.0285    0.0210   -0.1638   -0.0818    0.2343   -0.2545    0.4128
     6 C1     2py       -0.0003    0.0005    0.0003   -0.1128    0.0158    0.3268    0.1162    0.2465   -0.3809   -0.4951
     7 C1     *py        0.0002   -0.0013   -0.0028   -0.0410   -0.0245    0.2250    0.0963    0.1452   -0.1863   -0.5428
     8 C1     *200       0.0001   -0.0005    0.0012    0.0009   -0.0024    0.0048    0.0016    0.0109    0.0030   -0.0321
     9 C1     *110      -0.0001   -0.0003    0.0010   -0.0189    0.0199   -0.0191    0.0010   -0.0058   -0.0006    0.0640
    10 C1     *020       0.0001   -0.0004    0.0009    0.0070   -0.0074    0.0113    0.0004   -0.0108   -0.0033   -0.0523
    11 C1     *002      -0.0000   -0.0006    0.0016   -0.0060    0.0055   -0.0020    0.0017    0.0004   -0.0003   -0.0092
    12 C2     1s         0.0104    0.9519    0.2913   -0.1778   -0.0344    0.0765   -0.0554   -0.0061   -0.0037    0.1425
    13 C2     2s         0.0004    0.0262    0.0092    0.3288    0.0812   -0.1462    0.1203    0.0185    0.0136   -0.8300
    14 C2     *s         0.0067   -0.0097   -0.0114    0.2184    0.0293    0.0051    0.1604    0.0007    0.0207   -1.1660
    15 C2     2px       -0.0000    0.0002   -0.0003   -0.0670    0.1664    0.0945    0.1964    0.3369    0.5323    0.3764
    16 C2     *px        0.0029   -0.0012    0.0015    0.0731    0.0355   -0.1273   -0.0667    0.2286    0.2748    0.4421
    17 C2     2py        0.0001   -0.0003    0.0004    0.0717   -0.2448   -0.1291   -0.2353    0.2532    0.3973   -0.4985
    18 C2     *py       -0.0031    0.0013   -0.0022   -0.0971   -0.0311    0.1764    0.0611    0.1037    0.1980   -0.5633
    19 C2     *200      -0.0003   -0.0010   -0.0002   -0.0001    0.0015   -0.0014    0.0030   -0.0110    0.0025    0.0348
    20 C2     *110       0.0004   -0.0015   -0.0002   -0.0191   -0.0134    0.0117   -0.0082    0.0033   -0.0003   -0.0661
    21 C2     *020      -0.0005   -0.0006   -0.0002    0.0065    0.0095   -0.0020   -0.0000    0.0119   -0.0030    0.0547
    22 C2     *002      -0.0001   -0.0015   -0.0003   -0.0070   -0.0018    0.0039   -0.0007    0.0005   -0.0014    0.0125
    23 H3     1s         0.0001    0.0003   -0.0009   -0.0635    0.0934   -0.2830   -0.0626   -0.0005    0.0026    0.0984
    24 H3     *s         0.0003   -0.0008    0.0009   -0.0139    0.0243   -0.1288   -0.0327   -0.0053    0.0035   -0.0390
    25 C4     1s         0.9959   -0.0105   -0.0030   -0.0613   -0.1455   -0.0480    0.0228   -0.0122   -0.0131   -0.0394
    26 C4     2s         0.0283    0.0001   -0.0002    0.1241    0.2883    0.0890   -0.0502    0.0248    0.0291    0.0834
    27 C4     *s        -0.0208    0.0025    0.0010    0.0045    0.2731    0.2440    0.0575    0.0758    0.0161   -0.1214
    28 C4     2px       -0.0000    0.0003    0.0001   -0.0865   -0.1980   -0.0633    0.0255    0.0228    0.0224   -0.0510
    29 C4     *px       -0.0020   -0.0023   -0.0010    0.0099   -0.0827   -0.0722    0.0018    0.0662   -0.0231   -0.0093
    30 C4     2py        0.0006   -0.0005   -0.0000    0.0504    0.0299   -0.0683    0.4175    0.0045   -0.0143    0.1079
    31 C4     *py       -0.0049    0.0011    0.0011   -0.0502   -0.0098    0.0448    0.3327   -0.0401   -0.0385   -0.0160
    32 C4     *200      -0.0007   -0.0005   -0.0001    0.0007   -0.0015    0.0004    0.0008   -0.0091   -0.0097   -0.0070
    33 C4     *110      -0.0003    0.0006    0.0001   -0.0069   -0.0004    0.0073   -0.0463    0.0066    0.0095   -0.0003
    34 C4     *020      -0.0009   -0.0005   -0.0001    0.0065    0.0127    0.0062   -0.0054    0.0076    0.0094   -0.0060
    35 C4     *002      -0.0013   -0.0001   -0.0000   -0.0029   -0.0069   -0.0023    0.0005   -0.0001    0.0000   -0.0033
    36 H5     1s        -0.0002   -0.0002   -0.0000    0.0413    0.1487    0.0973   -0.2831    0.0269    0.0410   -0.0271
    37 H5     *s         0.0009   -0.0004    0.0001    0.0013    0.0467    0.0615   -0.1850    0.0339    0.0402   -0.0480



      Molecular orbitals for symmetry species 3: a2 


      Orbital                 1         2         3
      Energy            -0.3950    0.1267    0.4416
      Occ. No.           1.9385    0.1152    0.0477

     1 C1     2pz        0.3903   -0.4049    0.5211
     2 C1     *pz        0.2497   -0.2265    0.2426
     3 C1     *101       0.0133    0.0002   -0.0049
     4 C1     *011      -0.0177    0.0009    0.0058
     5 C2     2pz        0.4197    0.2236   -0.6351
     6 C2     *pz        0.2472    0.0576   -0.3639
     7 C2     *101      -0.0112    0.0188    0.0074
     8 C2     *011       0.0120   -0.0253   -0.0112
     9 C4     2pz        0.1015    0.6367    0.5258
    10 C4     *pz        0.0694    0.4299    0.4030
    11 C4     *101      -0.0126   -0.0139    0.0030
    12 C4     *011       0.0118    0.0080   -0.0089



      Molecular orbitals for symmetry species 4: b2 


      Orbital                 1         2         3
      Energy            -0.4539   -0.3177    0.3534
      Occ. No.           1.9461    1.8934    0.0590

     1 C1     2pz        0.3227   -0.2814   -0.6284
     2 C1     *pz        0.2012   -0.2123   -0.3040
     3 C1     *101       0.0119   -0.0053    0.0051
     4 C1     *011      -0.0155    0.0067   -0.0055
     5 C2     2pz        0.3762   -0.1579    0.6705
     6 C2     *pz        0.2147   -0.1363    0.3493
     7 C2     *101      -0.0047    0.0206    0.0014
     8 C2     *011       0.0060   -0.0256   -0.0020
     9 C4     2pz        0.2661    0.4896   -0.1551
    10 C4     *pz        0.1477    0.3794   -0.1580
    11 C4     *101       0.0051    0.0293   -0.0238
    12 C4     *011       0.0124   -0.0036    0.0128
--

      Von Neumann Entropy (Root   1) =  1.10505


      Mulliken population analysis for root number:  1
      -----------------------------------------------


++    Molecular charges:
      ------------------

      Mulliken charges per centre and basis function type
      ---------------------------------------------------

                C1      C2      H3      C4      H5    
      1s       1.9964  1.9965  0.5017  1.9965  0.5262
      2s       0.6631  0.6697  0.0000  0.6640  0.0000
      2px      0.6606  0.6656  0.0000  0.7462  0.0000
      2pz      0.5870  0.5989  0.0000  0.5607  0.0000
      2py      0.7181  0.7222  0.0000  0.7034  0.0000
      *s       0.5377  0.4129  0.2107  0.4726  0.2517
      *px      0.4367  0.2749  0.0000  0.2078  0.0000
      *110     0.0109  0.0095  0.0000  0.0185  0.0000
      *020     0.0351  0.0269  0.0000  0.0259  0.0000
      *002    -0.0178 -0.0168  0.0000 -0.0186  0.0000
      *200     0.0107  0.0069  0.0000  0.0243  0.0000
      *pz      0.4108  0.3785  0.0000  0.4347  0.0000
      *py      0.4043  0.1193  0.0000  0.3254  0.0000
      *101     0.0028  0.0047  0.0000  0.0075  0.0000
      *011     0.0048  0.0073  0.0000  0.0023  0.0000
      Total    6.4613  5.8771  0.7124  6.1713  0.7779

      N-E     -0.4613  0.1229  0.2876 -0.1713  0.2221

      Total electronic charge=   40.000000

      Total            charge=   -0.000000
--



      Expectation values of various properties for root number:  1
      -----------------------------------------------------------


++    Molecular properties:
      ---------------------

      Charge (e):
                      =   -0.0000
      Dipole Moment (Debye):
      Origin of the operator (Ang)=    0.0000    0.0000    0.0000
                   X=  0.0000E+00               Y= -1.5816E-01               Z=  0.0000E+00           Total=  1.5816E-01
      Quadrupole Moment (Debye*Ang):
      Origin of the operator (Ang)=    0.0000    0.0239    0.0000
                  XX= -3.0300E+01              XY=  0.0000E+00              XZ=  0.0000E+00              YY= -2.6823E+01
                  YZ=  0.0000E+00              ZZ= -3.7076E+01
      In traceless form (Debye*Ang)
                  XX=  1.6487E+00              XY=  0.0000E+00              XZ=  0.0000E+00              YY=  6.8654E+00
                  YZ=  0.0000E+00              ZZ= -8.5142E+00
--


      Input file to MOLDEN was generated!

      Average orbitals are written to the RASORB file
      Natural orbitals for root   1 are written to the RASORB.1 file
      Spin density orbitals for root   1 are written to the SPDORB.1 file

--- Stop Module: last_energy at Tue Jul  2 12:29:48 2024 /rc=_RC_ALL_IS_WELL_ ---
*** files: reactant.rasscf.molden reactant.RasOrb.1 reactant.RasOrb reactant.SpdOrb.1 xmldump
    saved to directory /home/kenya/molcas_test/0625_re
--- Module last_energy spent 23 seconds ---

>>> END DO

.##################.
.# Happy landing! #.
.##################.

    Timing: Wall=1948.41 User=1938.59 System=9.30
