[Molden Format]
[N_Atoms]
                   10
[Atoms] (AU)
C1          1      6          -1.78773095      2.27405224     -0.00093216
C2          2      6           1.80286001      2.28268194      0.00222948
C3          3      6          -2.62635590      0.00141246      0.00089085
C4          4      6           2.62402245     -0.02176785     -0.00101633
H5          5      1           2.46245593      4.18358974      0.00012873
H6          6      1          -2.46272461      4.17122976     -0.00067645
C7          7      6          -1.27567944     -2.35188342     -0.00037205
C8          8      6           1.28013139     -2.35740709      0.00298437
H9          9      1          -2.28961313     -4.13344508      0.00108121
H10        10      1           2.27263422     -4.12736408     -0.00431770
[Charge] (Mulliken)
   0.0000000000000000     
   0.0000000000000000     
   0.0000000000000000     
   0.0000000000000000     
   0.0000000000000000     
   0.0000000000000000     
   0.0000000000000000     
   0.0000000000000000     
   0.0000000000000000     
   0.0000000000000000     
[GTO] (AU)
   1
   s   6
  3.047524880E+03  1.834737132E-03
  4.573695180E+02  1.403732281E-02
  1.039486850E+02  6.884262227E-02
  2.921015530E+01  2.321844432E-01
  9.286662960E+00  4.679413484E-01
  3.163926960E+00  3.623119853E-01
   s   3
  7.868272350E+00 -1.193324198E-01
  1.881288540E+00 -1.608541517E-01
  5.442492580E-01  1.143456438E+00
   s   1
  1.687144782E-01  1.000000000E+00
   p   3
  7.868272350E+00  6.899906659E-02
  1.881288540E+00  3.164239610E-01
  5.442492580E-01  7.443082909E-01
   p   1
  1.687144782E-01  1.000000000E+00
   d   1
  8.000000000E-01  1.000000000E+00
 
   2
   s   6
  3.047524880E+03  1.834737132E-03
  4.573695180E+02  1.403732281E-02
  1.039486850E+02  6.884262227E-02
  2.921015530E+01  2.321844432E-01
  9.286662960E+00  4.679413484E-01
  3.163926960E+00  3.623119853E-01
   s   3
  7.868272350E+00 -1.193324198E-01
  1.881288540E+00 -1.608541517E-01
  5.442492580E-01  1.143456438E+00
   s   1
  1.687144782E-01  1.000000000E+00
   p   3
  7.868272350E+00  6.899906659E-02
  1.881288540E+00  3.164239610E-01
  5.442492580E-01  7.443082909E-01
   p   1
  1.687144782E-01  1.000000000E+00
   d   1
  8.000000000E-01  1.000000000E+00
 
   3
   s   6
  3.047524880E+03  1.834737132E-03
  4.573695180E+02  1.403732281E-02
  1.039486850E+02  6.884262227E-02
  2.921015530E+01  2.321844432E-01
  9.286662960E+00  4.679413484E-01
  3.163926960E+00  3.623119853E-01
   s   3
  7.868272350E+00 -1.193324198E-01
  1.881288540E+00 -1.608541517E-01
  5.442492580E-01  1.143456438E+00
   s   1
  1.687144782E-01  1.000000000E+00
   p   3
  7.868272350E+00  6.899906659E-02
  1.881288540E+00  3.164239610E-01
  5.442492580E-01  7.443082909E-01
   p   1
  1.687144782E-01  1.000000000E+00
   d   1
  8.000000000E-01  1.000000000E+00
 
   4
   s   6
  3.047524880E+03  1.834737132E-03
  4.573695180E+02  1.403732281E-02
  1.039486850E+02  6.884262227E-02
  2.921015530E+01  2.321844432E-01
  9.286662960E+00  4.679413484E-01
  3.163926960E+00  3.623119853E-01
   s   3
  7.868272350E+00 -1.193324198E-01
  1.881288540E+00 -1.608541517E-01
  5.442492580E-01  1.143456438E+00
   s   1
  1.687144782E-01  1.000000000E+00
   p   3
  7.868272350E+00  6.899906659E-02
  1.881288540E+00  3.164239610E-01
  5.442492580E-01  7.443082909E-01
   p   1
  1.687144782E-01  1.000000000E+00
   d   1
  8.000000000E-01  1.000000000E+00
 
   5
   s   3
  1.873113696E+01  3.349460434E-02
  2.825394365E+00  2.347269535E-01
  6.401216923E-01  8.137573261E-01
   s   1
  1.612777588E-01  1.000000000E+00
 
   6
   s   3
  1.873113696E+01  3.349460434E-02
  2.825394365E+00  2.347269535E-01
  6.401216923E-01  8.137573261E-01
   s   1
  1.612777588E-01  1.000000000E+00
 
   7
   s   6
  3.047524880E+03  1.834737132E-03
  4.573695180E+02  1.403732281E-02
  1.039486850E+02  6.884262227E-02
  2.921015530E+01  2.321844432E-01
  9.286662960E+00  4.679413484E-01
  3.163926960E+00  3.623119853E-01
   s   3
  7.868272350E+00 -1.193324198E-01
  1.881288540E+00 -1.608541517E-01
  5.442492580E-01  1.143456438E+00
   s   1
  1.687144782E-01  1.000000000E+00
   p   3
  7.868272350E+00  6.899906659E-02
  1.881288540E+00  3.164239610E-01
  5.442492580E-01  7.443082909E-01
   p   1
  1.687144782E-01  1.000000000E+00
   d   1
  8.000000000E-01  1.000000000E+00
 
   8
   s   6
  3.047524880E+03  1.834737132E-03
  4.573695180E+02  1.403732281E-02
  1.039486850E+02  6.884262227E-02
  2.921015530E+01  2.321844432E-01
  9.286662960E+00  4.679413484E-01
  3.163926960E+00  3.623119853E-01
   s   3
  7.868272350E+00 -1.193324198E-01
  1.881288540E+00 -1.608541517E-01
  5.442492580E-01  1.143456438E+00
   s   1
  1.687144782E-01  1.000000000E+00
   p   3
  7.868272350E+00  6.899906659E-02
  1.881288540E+00  3.164239610E-01
  5.442492580E-01  7.443082909E-01
   p   1
  1.687144782E-01  1.000000000E+00
   d   1
  8.000000000E-01  1.000000000E+00
 
   9
   s   3
  1.873113696E+01  3.349460434E-02
  2.825394365E+00  2.347269535E-01
  6.401216923E-01  8.137573261E-01
   s   1
  1.612777588E-01  1.000000000E+00
 
  10
   s   3
  1.873113696E+01  3.349460434E-02
  2.825394365E+00  2.347269535E-01
  6.401216923E-01  8.137573261E-01
   s   1
  1.612777588E-01  1.000000000E+00
 
[MO]
Sym=     1a  
Ene=   -11.3560
Spin= Alpha
Occup=    2.00000
   1         0.31392250
   2         0.00696292
   3         0.00103263
   4        -0.00004276
   5        -0.00140531
   6         0.00000122
   7        -0.00002670
   8        -0.00087762
   9         0.00000076
  10        -0.00000000
  11        -0.00000000
  12         0.00000000
  13        -0.00000000
  14         0.00000000
  15         0.00000000
  16         0.27407861
  17         0.00616532
  18         0.00099748
  19        -0.00005129
  20        -0.00130418
  21        -0.00000180
  22        -0.00003203
  23        -0.00081446
  24        -0.00000112
  25         0.00000000
  26         0.00000000
  27         0.00000000
  28        -0.00000000
  29         0.00000000
  30        -0.00000000
  31         0.42528665
  32         0.00937275
  33         0.00133185
  34         0.00114888
  35        -0.00012313
  36        -0.00000113
  37         0.00071748
  38        -0.00007690
  39        -0.00000071
  40        -0.00000000
  41         0.00000000
  42        -0.00000000
  43         0.00000000
  44         0.00000000
  45         0.00000000
  46         0.39543309
  47         0.00875383
  48         0.00128180
  49        -0.00112294
  50        -0.00026783
  51         0.00000275
  52        -0.00070127
  53        -0.00016726
  54         0.00000172
  55         0.00000000
  56        -0.00000000
  57         0.00000000
  58         0.00000000
  59        -0.00000000
  60        -0.00000000
  61         0.00065817
  62         0.00073488
  63         0.00074147
  64         0.00082789
  65         0.48460340
  66         0.01062011
  67         0.00145092
  68         0.00093637
  69         0.00101711
  70         0.00000210
  71         0.00058476
  72         0.00063519
  73         0.00000131
  74        -0.00000000
  75         0.00000000
  76         0.00000000
  77         0.00000000
  78        -0.00000000
  79         0.00000000
  80         0.48873836
  81         0.01065775
  82         0.00140431
  83        -0.00095666
  84         0.00097269
  85        -0.00000324
  86        -0.00059743
  87         0.00060745
  88        -0.00000202
  89         0.00000000
  90         0.00000000
  91        -0.00000000
  92         0.00000000
  93        -0.00000000
  94        -0.00000000
  95         0.00116038
  96         0.00129562
  97         0.00118701
  98         0.00132536
Sym=     2a  
Ene=   -11.3500
Spin= Alpha
Occup=    2.00000
   1        -0.49665266
   2        -0.00999898
   3        -0.00050147
   4         0.00101400
   5         0.00140638
   6        -0.00000086
   7         0.00063324
   8         0.00087828
   9        -0.00000054
  10        -0.00000000
  11        -0.00000000
  12        -0.00000000
  13        -0.00000000
  14        -0.00000000
  15        -0.00000000
  16         0.39912460
  17         0.00805745
  18         0.00042746
  19         0.00102619
  20        -0.00132483
  21        -0.00000144
  22         0.00064086
  23        -0.00082736
  24        -0.00000090
  25         0.00000000
  26         0.00000000
  27         0.00000000
  28        -0.00000000
  29        -0.00000000
  30        -0.00000000
  31        -0.53019292
  32        -0.01081270
  33        -0.00068949
  34        -0.00039385
  35        -0.00122378
  36         0.00000123
  37        -0.00024596
  38        -0.00076425
  39         0.00000077
  40         0.00000000
  41        -0.00000000
  42         0.00000000
  43         0.00000000
  44        -0.00000000
  45        -0.00000000
  46         0.48980181
  47         0.01010397
  48         0.00076499
  49        -0.00047772
  50         0.00058560
  51         0.00000232
  52        -0.00029834
  53         0.00036570
  54         0.00000145
  55         0.00000000
  56         0.00000000
  57         0.00000000
  58        -0.00000000
  59        -0.00000000
  60         0.00000000
  61         0.00082616
  62         0.00092245
  63        -0.00104289
  64        -0.00116445
  65        -0.07427925
  66        -0.00171259
  67        -0.00031676
  68         0.00134792
  69        -0.00103759
  70         0.00000023
  71         0.00084178
  72        -0.00064798
  73         0.00000014
  74        -0.00000000
  75         0.00000000
  76         0.00000000
  77        -0.00000000
  78         0.00000000
  79        -0.00000000
  80         0.23380237
  81         0.00488726
  82         0.00043666
  83         0.00091413
  84         0.00092942
  85        -0.00000135
  86         0.00057087
  87         0.00058042
  88        -0.00000084
  89         0.00000000
  90        -0.00000000
  91        -0.00000000
  92        -0.00000000
  93         0.00000000
  94         0.00000000
  95        -0.00019259
  96        -0.00021504
  97         0.00054713
  98         0.00061090
Sym=     3a  
Ene=   -11.3470
Spin= Alpha
Occup=    2.00000
   1        -0.37699665
   2        -0.00757521
   3        -0.00036421
   4        -0.00027976
   5         0.00036975
   6        -0.00000080
   7        -0.00017471
   8         0.00023091
   9        -0.00000050
  10        -0.00000000
  11         0.00000000
  12         0.00000000
  13         0.00000000
  14        -0.00000000
  15        -0.00000000
  16        -0.49871563
  17        -0.01000487
  18        -0.00046386
  19         0.00002284
  20         0.00071900
  21         0.00000163
  22         0.00001427
  23         0.00044902
  24         0.00000102
  25        -0.00000000
  26         0.00000000
  27        -0.00000000
  28        -0.00000000
  29        -0.00000000
  30        -0.00000000
  31        -0.19042423
  32        -0.00354089
  33         0.00013380
  34         0.00015894
  35        -0.00210318
  36         0.00000040
  37         0.00009926
  38        -0.00131343
  39         0.00000025
  40         0.00000000
  41        -0.00000000
  42        -0.00000000
  43        -0.00000000
  44        -0.00000000
  45        -0.00000000
  46        -0.32396949
  47        -0.00624867
  48        -0.00002235
  49        -0.00007710
  50        -0.00234413
  51        -0.00000043
  52        -0.00004815
  53        -0.00146391
  54        -0.00000027
  55        -0.00000000
  56         0.00000000
  57         0.00000000
  58        -0.00000000
  59         0.00000000
  60         0.00000000
  61        -0.00109462
  62        -0.00122220
  63        -0.00084286
  64        -0.00094110
  65         0.49814831
  66         0.00963502
  67         0.00006423
  68         0.00126775
  69        -0.00058111
  70         0.00000141
  71         0.00079171
  72        -0.00036290
  73         0.00000088
  74         0.00000000
  75        -0.00000000
  76        -0.00000000
  77         0.00000000
  78        -0.00000000
  79        -0.00000000
  80         0.45584365
  81         0.00873362
  82        -0.00003381
  83        -0.00157539
  84        -0.00083977
  85        -0.00000072
  86        -0.00098383
  87        -0.00052443
  88        -0.00000045
  89        -0.00000000
  90         0.00000000
  91        -0.00000000
  92         0.00000000
  93        -0.00000000
  94         0.00000000
  95         0.00104073
  96         0.00116203
  97         0.00096165
  98         0.00107374
Sym=     4a  
Ene=   -11.3340
Spin= Alpha
Occup=    2.00000
   1         0.38013067
   2         0.00641967
   3        -0.00098941
   4        -0.00018440
   5         0.00056928
   6        -0.00000065
   7        -0.00011516
   8         0.00035552
   9        -0.00000041
  10        -0.00000000
  11         0.00000000
  12         0.00000000
  13        -0.00000000
  14         0.00000000
  15         0.00000000
  16        -0.40740464
  17        -0.00692639
  18         0.00100905
  19        -0.00015720
  20        -0.00058583
  21        -0.00000086
  22        -0.00009817
  23        -0.00036585
  24        -0.00000053
  25        -0.00000000
  26        -0.00000000
  27        -0.00000000
  28        -0.00000000
  29         0.00000000
  30        -0.00000000
  31        -0.17209198
  32        -0.00318339
  33         0.00013942
  34        -0.00013369
  35         0.00197765
  36        -0.00000018
  37        -0.00008349
  38         0.00123504
  39        -0.00000011
  40        -0.00000000
  41         0.00000000
  42        -0.00000000
  43         0.00000000
  44        -0.00000000
  45         0.00000000
  46         0.18427434
  47         0.00335578
  48        -0.00020825
  49        -0.00010523
  50        -0.00200912
  51         0.00000028
  52        -0.00006572
  53        -0.00125469
  54         0.00000017
  55         0.00000000
  56         0.00000000
  57         0.00000000
  58         0.00000000
  59         0.00000000
  60        -0.00000000
  61        -0.00072872
  62        -0.00081365
  63         0.00067198
  64         0.00075030
  65        -0.56538800
  66        -0.00969776
  67         0.00130521
  68         0.00160101
  69        -0.00021540
  70         0.00000149
  71         0.00099983
  72        -0.00013452
  73         0.00000093
  74         0.00000000
  75         0.00000000
  76         0.00000000
  77        -0.00000000
  78        -0.00000000
  79         0.00000000
  80         0.54566099
  81         0.00932283
  82        -0.00130037
  83         0.00166460
  84         0.00023317
  85         0.00000110
  86         0.00103954
  87         0.00014561
  88         0.00000069
  89         0.00000000
  90         0.00000000
  91        -0.00000000
  92        -0.00000000
  93        -0.00000000
  94        -0.00000000
  95        -0.00097654
  96        -0.00109036
  97         0.00095638
  98         0.00106785
Sym=     5a  
Ene=   -11.3280
Spin= Alpha
Occup=    2.00000
   1        -0.46098846
   2        -0.00773619
   3         0.00125443
   4        -0.00084420
   5        -0.00135134
   6         0.00000066
   7        -0.00052720
   8        -0.00084391
   9         0.00000041
  10         0.00000000
  11         0.00000000
  12         0.00000000
  13         0.00000000
  14         0.00000000
  15        -0.00000000
  16        -0.46349617
  17        -0.00778310
  18         0.00125589
  19         0.00083348
  20        -0.00135254
  21        -0.00000150
  22         0.00052051
  23        -0.00084466
  24        -0.00000094
  25         0.00000000
  26         0.00000000
  27         0.00000000
  28         0.00000000
  29         0.00000000
  30         0.00000000
  31         0.50214151
  32         0.00812204
  33        -0.00170573
  34        -0.00063661
  35        -0.00100996
  36         0.00000101
  37        -0.00039757
  38        -0.00063072
  39         0.00000063
  40        -0.00000000
  41        -0.00000000
  42        -0.00000000
  43        -0.00000000
  44         0.00000000
  45        -0.00000000
  46         0.51698570
  47         0.00834788
  48        -0.00177204
  49         0.00065825
  50        -0.00090830
  51        -0.00000218
  52         0.00041108
  53        -0.00056723
  54        -0.00000136
  55        -0.00000000
  56         0.00000000
  57        -0.00000000
  58        -0.00000000
  59        -0.00000000
  60         0.00000000
  61        -0.00086917
  62        -0.00097048
  63        -0.00086143
  64        -0.00096184
  65        -0.12725192
  66        -0.00191762
  67         0.00058887
  68        -0.00084705
  69         0.00087707
  70        -0.00000011
  71        -0.00052898
  72         0.00054773
  73        -0.00000007
  74         0.00000000
  75         0.00000000
  76         0.00000000
  77         0.00000000
  78         0.00000000
  79        -0.00000000
  80        -0.17298290
  81        -0.00265062
  82         0.00075166
  83         0.00076616
  84         0.00091752
  85        -0.00000126
  86         0.00047846
  87         0.00057299
  88        -0.00000079
  89        -0.00000000
  90        -0.00000000
  91        -0.00000000
  92         0.00000000
  93         0.00000000
  94        -0.00000000
  95        -0.00018158
  96        -0.00020275
  97        -0.00025798
  98        -0.00028804
Sym=     6a  
Ene=   -11.3250
Spin= Alpha
Occup=    2.00000
   1        -0.38138364
   2        -0.00601062
   3         0.00147165
   4        -0.00018708
   5        -0.00109765
   6         0.00000127
   7        -0.00011683
   8        -0.00068548
   9         0.00000079
  10        -0.00000000
  11        -0.00000000
  12        -0.00000000
  13        -0.00000000
  14        -0.00000000
  15        -0.00000000
  16         0.35485934
  17         0.00557795
  18        -0.00138560
  19        -0.00011894
  20         0.00101268
  21         0.00000190
  22        -0.00007428
  23         0.00063242
  24         0.00000118
  25         0.00000000
  26         0.00000000
  27         0.00000000
  28        -0.00000000
  29        -0.00000000
  30        -0.00000000
  31         0.45802972
  32         0.00716105
  33        -0.00183144
  34        -0.00068273
  35        -0.00028691
  36         0.00000130
  37        -0.00042636
  38        -0.00017918
  39         0.00000081
  40        -0.00000000
  41        -0.00000000
  42        -0.00000000
  43         0.00000000
  44        -0.00000000
  45        -0.00000000
  46        -0.43285479
  47        -0.00676799
  48         0.00173018
  49        -0.00063486
  50         0.00019530
  51         0.00000257
  52        -0.00039647
  53         0.00012196
  54         0.00000161
  55         0.00000000
  56        -0.00000000
  57         0.00000000
  58         0.00000000
  59        -0.00000000
  60         0.00000000
  61         0.00057597
  62         0.00064310
  63        -0.00062205
  64        -0.00069456
  65        -0.40630239
  66        -0.00625382
  67         0.00173428
  68         0.00041944
  69         0.00069644
  70         0.00000180
  71         0.00026194
  72         0.00043493
  73         0.00000112
  74         0.00000000
  75         0.00000000
  76         0.00000000
  77        -0.00000000
  78         0.00000000
  79        -0.00000000
  80         0.40049699
  81         0.00615778
  82        -0.00171693
  83         0.00044935
  84        -0.00067645
  85         0.00000262
  86         0.00028062
  87        -0.00042245
  88         0.00000163
  89         0.00000000
  90        -0.00000000
  91        -0.00000000
  92         0.00000000
  93        -0.00000000
  94         0.00000000
  95        -0.00057499
  96        -0.00064201
  97         0.00057858
  98         0.00064601
Sym=     7a  
Ene=    -1.6526
Spin= Alpha
Occup=    2.00000
   1        -0.07587694
   2         0.09689618
   3         0.10950440
   4         0.02406340
   5        -0.04359205
   6         0.00003782
   7         0.01502758
   8        -0.02722321
   9         0.00002362
  10        -0.00000000
  11        -0.00000000
  12        -0.00000000
  13         0.00000000
  14        -0.00000000
  15        -0.00000000
  16        -0.07469869
  17         0.09591209
  18         0.10838353
  19        -0.02444858
  20        -0.04339649
  21        -0.00005598
  22        -0.01526812
  23        -0.02710109
  24        -0.00003496
  25         0.00000000
  26        -0.00000000
  27         0.00000000
  28        -0.00000000
  29        -0.00000000
  30         0.00000000
  31        -0.09356125
  32         0.11651534
  33         0.13172610
  34         0.05745128
  35        -0.00792519
  36        -0.00002487
  37         0.03587829
  38        -0.00494928
  39        -0.00001553
  40         0.00000000
  41        -0.00000000
  42         0.00000000
  43         0.00000000
  44         0.00000000
  45        -0.00000000
  46        -0.09361298
  47         0.11680129
  48         0.13204558
  49        -0.05749530
  50        -0.00836908
  51         0.00006753
  52        -0.03590578
  53        -0.00522649
  54         0.00004217
  55        -0.00000000
  56        -0.00000000
  57        -0.00000000
  58         0.00000000
  59        -0.00000000
  60         0.00000000
  61         0.02739138
  62         0.03058389
  63         0.02775411
  64         0.03098890
  65        -0.11557569
  66         0.14040980
  67         0.15880045
  68         0.03399112
  69         0.03792598
  70         0.00004907
  71         0.02122743
  72         0.02368475
  73         0.00003064
  74        -0.00000000
  75        -0.00000000
  76        -0.00000000
  77         0.00000000
  78         0.00000000
  79        -0.00000000
  80        -0.11640901
  81         0.14092531
  82         0.15939224
  83        -0.03344375
  84         0.03794547
  85        -0.00013677
  86        -0.02088561
  87         0.02369693
  88        -0.00008541
  89        -0.00000000
  90        -0.00000000
  91         0.00000000
  92        -0.00000000
  93         0.00000000
  94        -0.00000000
  95         0.04626231
  96         0.05165427
  97         0.04708244
  98         0.05256998
Sym=     8a  
Ene=    -1.3102
Spin= Alpha
Occup=    2.00000
   1        -0.11329003
   2         0.15343191
   3         0.17324981
   4         0.01744827
   5         0.01538518
   6         0.00005078
   7         0.01089644
   8         0.00960804
   9         0.00003171
  10        -0.00000000
  11        -0.00000000
  12        -0.00000000
  13         0.00000000
  14        -0.00000000
  15         0.00000000
  16        -0.10816800
  17         0.14714154
  18         0.16613673
  19        -0.02098079
  20         0.01714730
  21        -0.00009539
  22        -0.01310249
  23         0.01070848
  24        -0.00005957
  25        -0.00000000
  26        -0.00000000
  27         0.00000000
  28        -0.00000000
  29         0.00000000
  30         0.00000000
  31        -0.03400599
  32         0.04395413
  33         0.04966463
  34         0.00719875
  35         0.09713030
  36        -0.00002439
  37         0.00449561
  38         0.06065782
  39        -0.00001523
  40        -0.00000000
  41        -0.00000000
  42         0.00000000
  43         0.00000000
  44        -0.00000000
  45         0.00000000
  46        -0.02639960
  47         0.03390901
  48         0.03831800
  49        -0.00636754
  50         0.09717511
  51         0.00003953
  52        -0.00397652
  53         0.06068581
  54         0.00002469
  55        -0.00000000
  56        -0.00000000
  57        -0.00000000
  58         0.00000000
  59        -0.00000000
  60        -0.00000000
  61         0.07609232
  62         0.08496101
  63         0.07882035
  64         0.08800700
  65         0.09468334
  66        -0.12274949
  67        -0.13869098
  68        -0.03284488
  69         0.06024302
  70        -0.00004669
  71        -0.02051161
  72         0.03762173
  73        -0.00002916
  74        -0.00000000
  75        -0.00000000
  76        -0.00000000
  77        -0.00000000
  78         0.00000000
  79         0.00000000
  80         0.09905425
  81        -0.12801550
  82        -0.14464749
  83         0.02837383
  84         0.05862664
  85         0.00016599
  86         0.01771944
  87         0.03661231
  88         0.00010366
  89        -0.00000000
  90        -0.00000000
  91         0.00000000
  92         0.00000000
  93         0.00000000
  94        -0.00000000
  95        -0.07415141
  96        -0.08279389
  97        -0.07756957
  98        -0.08661044
Sym=     9a  
Ene=    -1.2244
Spin= Alpha
Occup=    2.00000
   1         0.08764366
   2        -0.12111055
   3        -0.13671556
   4         0.06602146
   5         0.04290120
   6        -0.00003270
   7         0.04123036
   8         0.02679177
   9        -0.00002042
  10         0.00000000
  11         0.00000000
  12         0.00000000
  13        -0.00000000
  14        -0.00000000
  15         0.00000000
  16        -0.09364502
  17         0.13025155
  18         0.14702123
  19         0.06336203
  20        -0.04137155
  21        -0.00007188
  22         0.03956956
  23        -0.02583651
  24        -0.00004489
  25         0.00000000
  26         0.00000000
  27         0.00000000
  28         0.00000000
  29         0.00000000
  30        -0.00000000
  31         0.12381848
  32        -0.17292319
  33        -0.19517596
  34         0.00075598
  35        -0.00980873
  36         0.00005332
  37         0.00047211
  38        -0.00612554
  39         0.00003330
  40        -0.00000000
  41         0.00000000
  42        -0.00000000
  43        -0.00000000
  44         0.00000000
  45         0.00000000
  46        -0.12482203
  47         0.17468603
  48         0.19716011
  49         0.00068441
  50         0.01537608
  51         0.00011724
  52         0.00042741
  53         0.00960236
  54         0.00007322
  55        -0.00000000
  56        -0.00000000
  57        -0.00000000
  58         0.00000000
  59         0.00000000
  60        -0.00000000
  61         0.05701139
  62         0.06365617
  63        -0.05234111
  64        -0.05844156
  65         0.06755302
  66        -0.09277206
  67        -0.10473460
  68         0.08032854
  69        -0.02897787
  70        -0.00004738
  71         0.05016513
  72        -0.01809667
  73        -0.00002959
  74         0.00000000
  75        -0.00000000
  76        -0.00000000
  77         0.00000000
  78         0.00000000
  79        -0.00000000
  80        -0.06247190
  81         0.08556543
  82         0.09660227
  83         0.08201101
  84         0.03266147
  85        -0.00010839
  86         0.05121583
  87         0.02039707
  88        -0.00006769
  89        -0.00000000
  90         0.00000000
  91         0.00000000
  92        -0.00000000
  93         0.00000000
  94         0.00000000
  95        -0.05101101
  96        -0.05695643
  97         0.04650861
  98         0.05192927
Sym=    10a  
Ene=    -1.0183
Spin= Alpha
Occup=    2.00000
   1        -0.09116528
   2         0.12628412
   3         0.14255098
   4        -0.06923618
   5         0.04003682
   6         0.00000917
   7        -0.04323796
   8         0.02500297
   9         0.00000573
  10        -0.00000000
  11        -0.00000000
  12        -0.00000000
  13         0.00000000
  14        -0.00000000
  15        -0.00000000
  16         0.09022454
  17        -0.12557653
  18        -0.14174304
  19        -0.06679423
  20        -0.03592234
  21         0.00007280
  22        -0.04171296
  23        -0.02243348
  24         0.00004547
  25         0.00000000
  26         0.00000000
  27         0.00000000
  28         0.00000000
  29        -0.00000000
  30         0.00000000
  31         0.00953215
  32        -0.01505677
  33        -0.01696762
  34        -0.01042868
  35         0.14662012
  36        -0.00005742
  37        -0.00651271
  38         0.09156419
  39        -0.00003586
  40         0.00000000
  41         0.00000000
  42         0.00000000
  43         0.00000000
  44         0.00000000
  45        -0.00000000
  46        -0.00943345
  47         0.01467465
  48         0.01654008
  49        -0.00770653
  50        -0.14517900
  51        -0.00003731
  52        -0.00481272
  53        -0.09066421
  54        -0.00002330
  55        -0.00000000
  56        -0.00000000
  57        -0.00000000
  58        -0.00000000
  59        -0.00000000
  60        -0.00000000
  61        -0.09058041
  62        -0.10113772
  63         0.09336590
  64         0.10424786
  65         0.08731736
  66        -0.12025990
  67        -0.13576150
  68         0.10790335
  69         0.01583454
  70        -0.00015168
  71         0.06738559
  72         0.00988866
  73        -0.00009473
  74         0.00000000
  75        -0.00000000
  76        -0.00000000
  77        -0.00000000
  78         0.00000000
  79         0.00000000
  80        -0.08698883
  81         0.11910679
  82         0.13447064
  83         0.10899208
  84        -0.01976790
  85        -0.00027441
  86         0.06806549
  87        -0.01234504
  88        -0.00017137
  89        -0.00000000
  90         0.00000000
  91         0.00000000
  92         0.00000000
  93        -0.00000000
  94        -0.00000000
  95        -0.09402523
  96        -0.10498404
  97         0.09533649
  98         0.10644813
Sym=    11a  
Ene=    -0.9584
Spin= Alpha
Occup=    2.00000
   1        -0.04344436
   2         0.07410893
   3         0.08343978
   4        -0.00123571
   5         0.15761855
   6        -0.00002789
   7        -0.00077170
   8         0.09843270
   9        -0.00001742
  10        -0.00000000
  11        -0.00000000
  12        -0.00000000
  13        -0.00000000
  14         0.00000000
  15         0.00000000
  16        -0.04597928
  17         0.07779190
  18         0.08759451
  19         0.00232913
  20         0.15920799
  21        -0.00011076
  22         0.00145454