   This run of MOLCAS is using the pymolcas driver

                             OPE
                             OPE          NMOL  CASOP  ENMOLC A   SO
                 OPE        NMOLC        AS  OP EN  MO LC     AS  OP
                OPENM       OL CA        SO  PE NM  OL CA     SOP EN
                OP EN      MO   LC       AS  OP ENMOL  CASO   PENMOL
                OP  EN     MO   LC       AS  OP EN     MO     LC ASO
               OP   E  NMOL  C  AS       OP  EN MO     LC     AS  OP
               OP  E   NMO   LC AS        OPEN  MO     LCASOP EN   M
               O  PEN   MO  LCA  SO
            OPE   NMO   L   CAS    OP
        OPENMOL  CASOP     ENMOL   CASOPE
     OPENMOLCA   SOPENMOLCASOPEN   MOLCASOPE
    OPENMOLCAS   OP           EN   MOL    CAS
    OPENMOLCAS       OP  ENM        O     LCA
    OPENMOLCAS    OPEN  MOLCASO     P  E  NMO
    OPENMOLCAS     OP               E  N  MOL
    OPENMOLCA   SO           PENM   O  L  CAS    OPEN    MO    LCAS
    OPENMOLCA   SOP           ENM   O  L  CAS   OP  EN  MOLC  AS   O
    OPENMOLCA   SOPE           NM      O  LCA   S      OP  EN MO
    OPENMOLC                AS         O  PEN   M      OL  CA  SOPE
    OPENMO        LCASOPE  NMOL        C  ASO   P      ENMOLC     AS
    OPE     NMO      LCA  SO     P     E   NM   OL  CA SO  PE N   MO
          OPENMOLCA            SOPE   NMO        LCAS  O    P  ENMO
     OPENMOLCASOPENMOLCASOPENMOLCASOPENMOLCA
        OPENMOLCASOPENMOLCASOPENMOLCASOPE
            OPENMOLCASOPENMOLCASOPENM
               OPENMOLCASOPENMOLCA        version: 24.02
                   OPENMOLCASO
                       OPE                tag: 428-g03afa2e9a

 OpenMolcas is free software; you can redistribute it and/or modify it
 under the terms of the GNU Lesser General Public License version 2.1.
 OpenMolcas is distributed in the hope that it will be useful, but it
 is provided "as is" and without any express or implied warranties.
 For more details see the full text of the license in the file
 LICENSE or in <http://www.gnu.org/licenses/>.

                 Copyright (C) The OpenMolcas Authors
           For the author list and the recommended citation,
                   consult the file CONTRIBUTORS.md

           *************************************************
           * pymolcas version py2.28                       *
           *   build c4a6d18ded8cb6cad61d2372a9abd97c      *
           *   (after the EMIL interpreter by V. Veryazov) *
           *************************************************

configuration info
------------------
Host name: DESKTOP-ET1S6F4 (Linux)
C Compiler ID: GNU
C flags: -std=gnu99 -fopenmp
Fortran Compiler ID: GNU
Fortran flags: -fno-aggressive-loop-optimizations -cpp -fdefault-integer-8 -fopenmp
Definitions: _WARNING_WORKAROUND_;_MOLCAS_;_I8_;_LINUX_
Parallel: OFF (GA=OFF)


   ----------------------------------------------------------------------
  |
  |           Project: ts
  |    Submitted from: /home/kenya/molcas_test/0625_re
  |      Scratch area: /tmp/ts
  |   Save outputs to: /home/kenya/molcas_test/0625_re
  |            Molcas: /home/kenya/OpenMolcas/builds/gnu_dev_omp
  |
  | Scratch area is NOT empty
  |
  |    MOLCAS_DRIVER = /home/kenya/OpenMolcas/builds/gnu_dev_omp/pymolcas
  |    MOLCAS_NPROCS = 1
  |    MOLCAS_SOURCE = /home/kenya/OpenMolcas
  | MOLCAS_STRUCTURE = 0
  |
   ----------------------------------------------------------------------

++ ---------   Input file   ---------

&GATEWAY
  Coord = ts.Opt.xyz
  Basis = 6-31G*
  Group = C1
  NoCD
  Constraints
    a = bond c1 c2
  Values
    a = 1.9 angstrom
  End of Constraints

>>> COPY $CurrDir/ts.RasOrb INPORB

>>> DO WHILE

  &SEWARD

  &RASSCF
    NACTEL = 12 0 0
    INACTIVE = 14
    RAS2 = 12

  &ALASKA

  &SLAPAF

>>> END DO

&MCKINLEY

-- ----------------------------------

*** symbolic link created: INPORB -> ts.RasOrb
--- Start Module: gateway at Thu Jul  4 01:46:36 2024 ---

()()()()()()()()()()()()()()()()()()()()()()()()()()()()()()()()()()()()()()()()()()()()()()()()()()

                                              &GATEWAY

                                   only a single process is used
                       available to each process: 2.0 GB of memory, 1 thread
                                             pid: 48452
()()()()()()()()()()()()()()()()()()()()()()()()()()()()()()()()()()()()()()()()()()()()()()()()()()


++    Symmetry information:
      ---------------------

                    Character Table for C1 

                             E  
                    a        1  x, y, xy, Rz, z, xz, Ry, yz, Rx, I
--


++    Basis set information:
      ----------------------


      Basis set label: C.6-31G**....

      Electronic valence basis set:
      ------------------
      Associated Effective Charge   6.000000 au
      Associated Actual Charge      6.000000 au
      Nuclear Model: Point charge

      Shell  nPrim  nBasis  Cartesian Spherical Contaminant
         s      10       3        X                  
         p       4       2        X                  
         d       1       1        X                  


      Basis set label: H.6-31G....

      Electronic valence basis set:
      ------------------
      Associated Effective Charge   1.000000 au
      Associated Actual Charge      1.000000 au
      Nuclear Model: Point charge

      Shell  nPrim  nBasis  Cartesian Spherical Contaminant
         s       4       2        X                  


      Basis set label: C.6-31G**....

      Electronic valence basis set:
      ------------------
      Associated Effective Charge   6.000000 au
      Associated Actual Charge      6.000000 au
      Nuclear Model: Point charge

      Shell  nPrim  nBasis  Cartesian Spherical Contaminant
         s      10       3        X                  
         p       4       2        X                  
         d       1       1        X                  


      Basis set label: H.6-31G....

      Electronic valence basis set:
      ------------------
      Associated Effective Charge   1.000000 au
      Associated Actual Charge      1.000000 au
      Nuclear Model: Point charge

      Shell  nPrim  nBasis  Cartesian Spherical Contaminant
         s       4       2        X                  
--


++    Molecular structure info:
      -------------------------

                    ************************************************ 
                    **** Cartesian Coordinates / Bohr, Angstrom **** 
                    ************************************************ 

     Center  Label                x              y              z                     x              y              z
        1      C1              -1.787731       2.274052      -0.000932             -0.946026       1.203377      -0.000493
        2      C2               1.802860       2.282682       0.002229              0.954032       1.207943       0.001180
        3      C3              -2.626356       0.001412       0.000891             -1.389808       0.000747       0.000471
        4      C4               2.624022      -0.021768      -0.001016              1.388573      -0.011519      -0.000538
        5      H5               2.462456       4.183590       0.000129              1.303076       2.213860       0.000068
        6      H6              -2.462725       4.171230      -0.000676             -1.303218       2.207320      -0.000358
        7      C7              -1.275679      -2.351883      -0.000372             -0.675060      -1.244563      -0.000197
        8      C8               1.280131      -2.357407       0.002984              0.677416      -1.247486       0.001579
        9      H9              -2.289613      -4.133445       0.001081             -1.211611      -2.187325       0.000572
       10      H10              2.272634      -4.127364      -0.004318              1.202626      -2.184107      -0.002285

                    *************************************** 
                    *    InterNuclear Distances / Bohr    * 
                    *************************************** 

               1 C1            2 C2            3 C3            4 C4            5 H5            6 H6    
    1 C1       0.000000
    2 C2       3.590603        0.000000
    3 C3       2.422434        4.982183        0.000000
    4 C4       4.973365        2.446387        5.250430        0.000000
    5 H5       4.659445        2.012094        6.586852        4.208460        0.000000
    6 H6       2.013678        4.664958        4.173027        6.592134        4.925196        0.000000
    7 C7       4.654189        5.563866        2.713361        4.542809        7.529015        6.630240
    8 C8       5.555377        4.669440        4.563406        2.694674        6.646995        7.525429
    9 H9       6.427123        7.610192        4.148547        6.407005        9.578895        8.306479
   10 H10      7.580548        6.427241        6.406788        4.120607        8.313122        9.554596

               7 C7            8 C8            9 H9           10 H10   
    7 C7       0.000000
    8 C8       2.555819        0.000000
    9 H9       2.049884        3.987153        0.000000
   10 H10      3.967729        2.029252        4.562255        0.000000

                    ******************************************* 
                    *    InterNuclear Distances / Angstrom    * 
                    ******************************************* 

               1 C1            2 C2            3 C3            4 C4            5 H5            6 H6    
    1 C1       0.000000
    2 C2       1.900065        0.000000
    3 C3       1.281897        2.636458        0.000000
    4 C4       2.631791        1.294572        2.778408        0.000000
    5 H5       2.465672        1.064754        3.485612        2.227021        0.000000
    6 H6       1.065593        2.468589        2.208271        3.488407        2.606302        0.000000
    7 C7       2.462891        2.944271        1.435849        2.403951        3.984183        3.508572
    8 C8       2.939779        2.470961        2.414851        1.425960        3.517438        3.982286
    9 H9       3.401087        4.027140        2.195317        3.390441        5.068933        4.395599
   10 H10      4.011453        3.401149        3.390326        2.180532        4.399115        5.056074

               7 C7            8 C8            9 H9           10 H10   
    7 C7       0.000000
    8 C8       1.352481        0.000000
    9 H9       1.084752        2.109911        0.000000
   10 H10      2.099632        1.073834        2.414241        0.000000

                    ************************************** 
                    *    Valence Bond Angles / Degree    * 
                    ************************************** 
                          Atom centers                 Phi
                      3 C3       1 C1       6 H6       140.16
                      4 C4       2 C2       5 H5       141.25
                      1 C1       3 C3       7 C7       129.89
                      2 C2       4 C4       8 C8       130.47
                      3 C3       7 C7       8 C8       119.98
                      3 C3       7 C7       9 H9       120.50
                      8 C8       7 C7       9 H9       119.52
                      4 C4       8 C8       7 C7       119.79
                      4 C4       8 C8      10 H10      120.80
                      7 C7       8 C8      10 H10      119.40

           ***************************************************************
           *              Valence Dihedral Angles / Degree               *
           ***************************************************************
                    Atom centers                       Phi1     Phi2     Theta 
           6 H6       1 C1       3 C3       7 C7        140.16   129.89   179.99
           5 H5       2 C2       4 C4       8 C8        141.25   130.47  -179.99
           1 C1       3 C3       7 C7       8 C8        129.89   119.98     0.18
           1 C1       3 C3       7 C7       9 H9        129.89   120.50  -179.98
           2 C2       4 C4       8 C8       7 C7        130.47   119.79     0.31
           2 C2       4 C4       8 C8      10 H10       130.47   120.80   179.88
           3 C3       7 C7       8 C8       4 C4        119.98   119.79    -0.22
           3 C3       7 C7       8 C8      10 H10       119.98   119.40  -179.80
           9 H9       7 C7       8 C8      10 H10       119.52   119.40     0.37
           4 C4       8 C8       7 C7       9 H9        119.79   119.52   179.95
--


            Nuclear Potential Energy            180.46224215 au

--- Stop Module: gateway at Thu Jul  4 01:46:36 2024 /rc=_RC_ALL_IS_WELL_ ---
*** files: xmldump
    saved to directory /home/kenya/molcas_test/0625_re

>>> COPY /home/kenya/molcas_test/0625_re/ts.RasOrb INPORB

--- Start Module: seward at Thu Jul  4 01:46:36 2024 ---

()()()()()()()()()()()()()()()()()()()()()()()()()()()()()()()()()()()()()()()()()()()()()()()()()()

                                              &SEWARD

                                   only a single process is used
                       available to each process: 2.0 GB of memory, 1 thread
                                             pid: 48456
()()()()()()()()()()()()()()()()()()()()()()()()()()()()()()()()()()()()()()()()()()()()()()()()()()

               SEWARD will generate:
                  Multipole Moment integrals up to order  2
                  Kinetic Energy integrals
                  Nuclear Attraction integrals (point charge)
                  One-Electron Hamiltonian integrals
                  Velocity integrals
                  Orbital angular momentum around ( 0.0025 -0.0260  0.0005 )
                  Velocity quadrupole around ( 0.0025 -0.0260  0.0005 )
                  Two-Electron Repulsion integrals

                   Integrals are discarded if absolute value <: 1.00E-14
                   Integral cutoff threshold is set to       <: 1.00E-16

            Nuclear Potential Energy            180.46224215 au


      Basis set specifications :
      Symmetry species         a  
      Basis functions           98


      Input file to MOLDEN was generated!

--- Stop Module: seward at Thu Jul  4 01:46:41 2024 /rc=_RC_ALL_IS_WELL_ ---
*** files: ts.GssOrb ts.guessorb.molden xmldump
    saved to directory /home/kenya/molcas_test/0625_re
--- Module seward spent 4 seconds ---

--- Start Module: rasscf at Thu Jul  4 01:46:41 2024 ---

()()()()()()()()()()()()()()()()()()()()()()()()()()()()()()()()()()()()()()()()()()()()()()()()()()

                                              &RASSCF

                                   only a single process is used
                       available to each process: 2.0 GB of memory, 1 thread
                                             pid: 48532
()()()()()()()()()()()()()()()()()()()()()()()()()()()()()()()()()()()()()()()()()()()()()()()()()()

 ###############################################################################
 ###############################################################################
 ###                                                                         ###
 ###                                                                         ###
 ###    WARNING: Had to guess the spin.                                      ###
 ###                                                                         ###
 ###                                                                         ###
 ###############################################################################
 ###############################################################################
  Warning: no input and no reliable source
  for the spin multiplicity.
  Guess ISPIN=                    1

      Header of the ONEINT file:
      --------------------------
      
      Integrals generated by Gateway/Seward, Thu Jul  4 01:46:36 2024


      OrdInt status: non-squared


      Cartesian coordinates in Angstrom:
      -----------------------------------------------------
      No.  Label        X            Y            Z        
      -----------------------------------------------------
       1   C1        -0.94602648   1.20337662  -0.00049328
       2   C2         0.95403243   1.20794326   0.00117979
       3   C3        -1.38980769   0.00074744   0.00047142
       4   C4         1.38857288  -0.01151905  -0.00053782
       5   H5         1.30307556   2.21386035   0.00006812
       6   H6        -1.30321774   2.20731973  -0.00035796
       7   C7        -0.67506049  -1.24456311  -0.00019688
       8   C8         0.67741636  -1.24748611   0.00157926
       9   H9        -1.21161109  -2.18732494   0.00057215
      10   H10        1.20262624  -2.18410701  -0.00228483
      -----------------------------------------------------
      Nuclear repulsion energy =  180.46224215

++    Wave function specifications:
      -----------------------------

      Number of closed shell electrons          28
      Number of electrons in active shells      12
      Max number of holes in RAS1 space          0
      Max nr of electrons in RAS3 space          0
      Number of inactive orbitals               14
      Number of active orbitals                 12
      Number of secondary orbitals              72
      Spin quantum number                      0.0
      State symmetry                             1
--

++    Orbital specifications:
      -----------------------

      Symmetry species                           1
                                                 a
      Frozen orbitals                            0
      Inactive orbitals                         14
      Active orbitals                           12
      RAS1 orbitals                              0
      RAS2 orbitals                             12
      RAS3 orbitals                              0
      Secondary orbitals                        72
      Deleted orbitals                           0
      Number of basis functions                 98
--

++    CI expansion specifications:
      ----------------------------

      Number of CSFs                        226512
      Number of determinants                427350
      Number of root(s) required                 1
      Root chosen for geometry opt.              1
      CI root used                               1
         
      highest root included in the CI            1
      max. size of the explicit Hamiltonian    200
--

++    Optimization specifications:
      ----------------------------

      RASSCF algorithm: Conventional
      Maximum number of macro iterations       200
      Maximum number of SX iterations          100
      Threshold for RASSCF energy            1.000E-08
      Threshold for max MO rotation          1.000E-01
      Threshold for max BLB element          1.000E-04
      Level shift parameter                  5.000E-01
      Make Quasi-Newton update
--

      Orbitals from runfile: guessorb orbitals
      The MO-coefficients are taken from guessorb on runfile

      Total molecular charge    0.00

      ************************************************************************************************************************
      *                                                                                                                      *
      *                                            Wave function control section                                             *
      *                                                                                                                      *
      ************************************************************************************************************************


                                         RASSCF iterations: Energy and convergence statistics
                                         ----------------------------------------------------

      Iter CI   SX   CI       RASSCF       Energy    max ROT     max BLB   max BLB  Level Ln srch  Step   QN   Walltime
          iter iter root      energy       change     param      element    value   shift minimum  type update hh:mm:ss
 Nr of preliminary CI iterations:   6
        1   1  100    1  -229.00648005    0.00E+00   4.74E-01*  10  51 1 -2.43E-01*  0.02   0.00    SX    NO    0:00:55
        2   6   85    1  -229.40220343   -3.96E-01* -2.16E-01*  18  54 1 -7.71E-02*  0.06   0.00    SX    NO    0:00:35
        3   3   18    1  -229.45154507   -4.93E-02* -1.04E-01*  18  54 1 -1.92E-02*  0.07   0.00    SX    NO    0:00:24
        4   4   17    1  -229.46073942   -9.19E-03* -1.09E-01*  13  18 1 -1.12E-02*  0.08   0.00    SX    NO    0:00:28
        5   5   25    1  -229.46597782   -5.24E-03* -2.52E-01*  13  18 1 -9.70E-03*  0.09   2.50    QN   YES    0:00:31
        6   6   15    1  -229.47380815   -7.83E-03*  1.63E-01*  13  57 1 -1.03E-02*  0.08   1.35    QN   YES    0:00:35
        7   5   55    1  -229.47661150   -2.80E-03* -2.00E-01*  13  57 1 -1.53E-02*  0.05   2.06    QN   YES    0:00:32
        8   6  100    1  -229.48040002   -3.79E-03* -2.10E-01*  13  57 1 -1.97E-02*  0.00   2.31    QN   YES    0:00:36
        9   6   51    1  -229.48250800   -2.11E-03*  1.95E-01*  13  57 1 -2.98E-02*  0.00   0.98    QN   YES    0:00:35
       10   6   80    1  -229.47912337    3.38E-03* -1.10E-01*  13  57 1 -2.32E-02*  0.00  -0.22    SX   YES    0:00:37
       11   6   49    1  -229.48789988   -8.78E-03*  2.88E-01*  18  54 1  1.64E-02*  0.00   2.50    QN   YES    0:00:37
       12   6   13    1  -229.50036463   -1.25E-02* -5.47E-02   13  23 1 -8.81E-03*  0.00   1.02    QN   YES    0:00:37
       13   3   13    1  -229.50158420   -1.22E-03* -1.50E-02   13  23 1 -8.28E-03*  0.00   1.28    QN   YES    0:00:26
       14   5   14    1  -229.50152428    5.99E-05*  2.21E-02   13  23 1 -6.93E-03*  0.00   0.34    SX   YES    0:00:34
       15   7   14    1  -229.50303282   -1.51E-03*  2.33E-02   19  57 1 -4.54E-03*  0.00   2.23    LS   YES    0:00:41
       16   4   14    1  -229.50373858   -7.06E-04*  3.20E-02   19  57 1 -2.67E-03*  0.00   1.20    QN   YES    0:00:30
       17   5   13    1  -229.50404815   -3.10E-04* -1.37E-02   13  23 1  1.08E-03*  0.00   1.33    QN   YES    0:00:34
       18   5   12    1  -229.50414108   -9.29E-05*  8.48E-03   13  23 1  8.96E-04*  0.00   1.47    QN   YES    0:00:34
       19   5   11    1  -229.50417649   -3.54E-05*  4.35E-03   13  24 1 -4.76E-04*  0.00   1.43    QN   YES    0:00:33
       20   5   11    1  -229.50418812   -1.16E-05*  2.63E-03   13  31 1 -1.81E-04*  0.00   1.41    QN   YES    0:00:34
       21   5   10    1  -229.50419183   -3.71E-06* -1.59E-03   13  23 1 -2.27E-04*  0.00   1.46    QN   YES    0:00:34
       22   4   10    1  -229.50419322   -1.39E-06*  7.63E-04   13  23 1 -1.37E-04*  0.00   1.38    QN   YES    0:00:30
       23   5    9    1  -229.50419361   -3.94E-07*  2.69E-04   19  57 1 -4.28E-05   0.00   1.27    QN   YES    0:00:34
       24   3    8    1  -229.50419368   -6.32E-08* -6.84E-05   17  55 1  1.26E-05   0.00   1.21    QN   YES    0:00:26
       25   1    7    1  -229.50419368   -7.98E-09  -4.10E-05   13  31 1  7.95E-06   0.00   1.23    QN   YES    0:00:18
      Convergence after 25 iterations
       26   1    7    1  -229.50419369   -1.77E-09  -4.10E-05   13  24 1 -2.65E-06   0.00   1.23    QN   YES    0:00:21

      ************************************************************************************************************************
                                                      Wave function printout:
                       occupation of active orbitals, and spin coupling of open shells (u,d: Spin up or down)
      ************************************************************************************************************************

      Note: transformation to natural orbitals
      has been made, which may change the order of the CSFs.

      printout of CI-coefficients larger than  0.05 for root  1
      energy=    -229.504194
      conf/sym  111111111111     Coeff  Weight
             1  222222000000   0.84613 0.71594
            38  222220200000  -0.31366 0.09838
           104  22u22du0d000  -0.10986 0.01207
           132  2u222du000d0   0.12304 0.01514
           192  222ud20u0d00   0.09916 0.00983
           214  22u2d200ud00   0.06900 0.00476
           271  222022020000  -0.12544 0.01574
           294  22ud220ud000  -0.09193 0.00845
           322  2u2d220u00d0   0.05001 0.00250
           358  220222002000  -0.07099 0.00504
           430  202222000020  -0.07282 0.00530
           478  022222000002  -0.05614 0.00315
           494  222u2udd0000   0.05776 0.00334
           530  2u222ud000d0  -0.07705 0.00594
           616  22uu220dd000   0.06656 0.00443

      Natural orbitals and occupation numbers for root  1
      sym 1:   1.980119   1.930972   1.910671   1.891806   1.947459   1.703765   0.301405   0.117766   0.086859   0.048610
               0.063019   0.017550

      ************************************************************************************************************************
      *                                                                                                                      *
      *                                                    Final results                                                     *
      *                                                                                                                      *
      ************************************************************************************************************************


++    Wave function specifications:
      -----------------------------

      Number of closed shell electrons          28
      Number of electrons in active shells      12
      Max number of holes in RAS1 space          0
      Max nr of electrons in RAS3 space          0
      Number of inactive orbitals               14
      Number of active orbitals                 12
      Number of secondary orbitals              72
      Spin quantum number                      0.0
      State symmetry                             1
--

++    Orbital specifications:
      -----------------------

      Symmetry species                           1
                                                 a
      Frozen orbitals                            0
      Inactive orbitals                         14
      Active orbitals                           12
      RAS1 orbitals                              0
      RAS2 orbitals                             12
      RAS3 orbitals                              0
      Secondary orbitals                        72
      Deleted orbitals                           0
      Number of basis functions                 98
--

++    CI expansion specifications:
      ----------------------------

      Number of CSFs                        226512
      Number of determinants                427350
      Number of root(s) required                 1
      CI root used                               1
      highest root included in the CI            1
      Root passed to geometry opt.               1
--

++    Final optimization conditions:
      ------------------------------

      Average CI energy                            -229.50419369
      RASSCF energy for state  1                   -229.50419369
      Super-CI energy                                -0.00000000
      RASSCF energy change                            0.00000000
      Max change in MO coefficients               7.285E-05
      Max non-diagonal density matrix element    -4.103E-05
      Maximum BLB matrix element                 -2.649E-06
      (orbital pair  13,  24 in symmetry   1)
      Norm of electronic gradient            1.264E-05
--


      Final state energy(ies):
      ------------------------

::    RASSCF root number  1 Total energy:   -229.50419369

++    Molecular orbitals:
      -------------------

      Pseudonatural active orbitals and approximate occupation numbers




      Molecular orbitals for symmetry species 1: a  


      Orbital                 1         2         3         4         5         6         7         8         9        10
      Energy           -11.2441  -11.2423  -11.2401  -11.2395  -11.2268  -11.2194   -1.0923   -0.9872   -0.9622   -0.7935
      Occ. No.           2.0000    2.0000    2.0000    2.0000    2.0000    2.0000    2.0000    2.0000    2.0000    2.0000

     1 C1     1s        -0.0013    0.0202    0.9930    0.0438    0.0010   -0.0563   -0.0541   -0.1467    0.0895   -0.0111
     2 C1     2s        -0.0001    0.0002    0.0272    0.0011   -0.0002   -0.0018    0.1011    0.2786   -0.1762    0.0224
     3 C1     *s         0.0011    0.0029   -0.0133    0.0009    0.0020    0.0090    0.0781    0.2281   -0.1323    0.0258
     4 C1     2px       -0.0000   -0.0003   -0.0007    0.0001   -0.0004    0.0008   -0.0215   -0.0771    0.0691   -0.0038
     5 C1     *px        0.0003    0.0011   -0.0009    0.0004    0.0003    0.0008   -0.0135   -0.0282    0.0190    0.0030
     6 C1     2py        0.0000    0.0000    0.0001    0.0001   -0.0001    0.0001   -0.0452   -0.0883    0.0826   -0.0357
     7 C1     *py       -0.0008   -0.0010    0.0019   -0.0008   -0.0009   -0.0046   -0.0117    0.0004   -0.0128   -0.0063
     8 C1     2pz        0.0000   -0.0000    0.0000   -0.0000   -0.0000   -0.0000    0.0001    0.0001   -0.0001    0.0001
     9 C1     *pz        0.0000   -0.0000   -0.0000    0.0000    0.0000    0.0000    0.0001    0.0000   -0.0001    0.0001
    10 C1     *200      -0.0000   -0.0001   -0.0015   -0.0001   -0.0000   -0.0001    0.0009   -0.0015    0.0042   -0.0016
    11 C1     *110       0.0000   -0.0000    0.0001   -0.0001    0.0000   -0.0001    0.0014    0.0038   -0.0042    0.0006
    12 C1     *101       0.0000   -0.0000   -0.0000    0.0000    0.0000    0.0000    0.0000   -0.0000    0.0000   -0.0000
    13 C1     *020       0.0000   -0.0001   -0.0007   -0.0001   -0.0000   -0.0001    0.0033    0.0116   -0.0076    0.0013
    14 C1     *011       0.0000   -0.0000   -0.0000   -0.0000   -0.0000    0.0000   -0.0000   -0.0000    0.0000   -0.0000
    15 C1     *002      -0.0000   -0.0001   -0.0013   -0.0000   -0.0000   -0.0000   -0.0028   -0.0067    0.0035   -0.0003
    16 C2     1s         0.0101    0.9932   -0.0203   -0.0038    0.0689   -0.0017   -0.0852   -0.0586   -0.1264    0.0848
    17 C2     2s         0.0002    0.0271   -0.0009   -0.0000    0.0022    0.0001    0.1613    0.1075    0.2452   -0.1663
    18 C2     *s        -0.0012   -0.0129    0.0035   -0.0013   -0.0088   -0.0019    0.1080    0.1017    0.1940   -0.1651
    19 C2     2px        0.0000    0.0008    0.0003   -0.0000    0.0009   -0.0004    0.0278    0.0217    0.0760   -0.0783
    20 C2     *px        0.0003    0.0009   -0.0011    0.0003    0.0009    0.0002    0.0094    0.0152    0.0215   -0.0360
    21 C2     2py        0.0000    0.0001   -0.0000   -0.0000   -0.0003    0.0001   -0.0809   -0.0105   -0.0891   -0.0942
    22 C2     *py        0.0007    0.0017   -0.0011    0.0010    0.0045    0.0009   -0.0013   -0.0121    0.0130   -0.0477
    23 C2     2pz       -0.0000   -0.0000    0.0000   -0.0000   -0.0000   -0.0000   -0.0002   -0.0001   -0.0003    0.0003
    24 C2     *pz        0.0000    0.0000   -0.0000    0.0000   -0.0000    0.0000   -0.0001   -0.0001   -0.0001    0.0002
    25 C2     *200       0.0000   -0.0015   -0.0001    0.0000    0.0001    0.0000   -0.0016    0.0022   -0.0042    0.0005
    26 C2     *110      -0.0000   -0.0001    0.0000    0.0000   -0.0002    0.0000   -0.0015   -0.0004   -0.0041   -0.0022
    27 C2     *101      -0.0000   -0.0000   -0.0000   -0.0000   -0.0000   -0.0000   -0.0000   -0.0000   -0.0000    0.0000
    28 C2     *020       0.0001   -0.0007   -0.0000    0.0000    0.0001    0.0000    0.0073    0.0038    0.0112   -0.0083
    29 C2     *011       0.0000   -0.0000    0.0000    0.0000    0.0000   -0.0000    0.0000    0.0000    0.0000    0.0000
    30 C2     *002      -0.0000   -0.0013   -0.0001    0.0000    0.0000    0.0000   -0.0040   -0.0032   -0.0053    0.0039
    31 C3     1s         0.0027    0.0021    0.0557   -0.0177    0.0075    0.9944   -0.0399   -0.1005    0.0724   -0.0148
    32 C3     2s         0.0001    0.0002    0.0013   -0.0001    0.0006    0.0271    0.0729    0.1918   -0.1337    0.0307
    33 C3     *s        -0.0015   -0.0018    0.0063   -0.0055   -0.0026   -0.0184    0.0257    0.1336   -0.1013    0.0226
    34 C3     2px        0.0000   -0.0001   -0.0004    0.0003    0.0001    0.0016    0.0200    0.0294   -0.0364    0.0119
    35 C3     *px       -0.0006   -0.0008    0.0011   -0.0018   -0.0009   -0.0041   -0.0052    0.0040   -0.0156   -0.0057
    36 C3     2py       -0.0000   -0.0000   -0.0004   -0.0006    0.0000    0.0009    0.0696    0.1791   -0.1292    0.0296
    37 C3     *py       -0.0003   -0.0001    0.0022    0.0010   -0.0001   -0.0009    0.0122    0.0128   -0.0296   -0.0121
    38 C3     2pz       -0.0000   -0.0000    0.0000   -0.0000   -0.0000   -0.0000   -0.0001   -0.0001    0.0001   -0.0001
    39 C3     *pz        0.0000    0.0000    0.0000   -0.0000    0.0000    0.0000   -0.0000   -0.0000    0.0000   -0.0000
    40 C3     *200       0.0000   -0.0000   -0.0003    0.0002    0.0000   -0.0014   -0.0002   -0.0039    0.0016    0.0002
    41 C3     *110      -0.0000   -0.0000   -0.0000   -0.0002   -0.0000    0.0000    0.0006    0.0096   -0.0034    0.0036
    42 C3     *101       0.0000    0.0000    0.0000   -0.0000    0.0000    0.0000   -0.0000   -0.0000    0.0000   -0.0000
    43 C3     *020      -0.0000    0.0000   -0.0001    0.0004    0.0000   -0.0007    0.0029    0.0056   -0.0054   -0.0020
    44 C3     *011       0.0000   -0.0000    0.0000    0.0000    0.0000   -0.0000   -0.0000   -0.0000    0.0000    0.0000
    45 C3     *002      -0.0000   -0.0000   -0.0002    0.0001    0.0000   -0.0014   -0.0022   -0.0036    0.0035   -0.0001
    46 C4     1s         0.0274    0.0675   -0.0002    0.0064   -0.9931    0.0074   -0.1230   -0.0093   -0.1064   -0.0567
    47 C4     2s         0.0006    0.0015    0.0001    0.0002   -0.0274   -0.0001    0.2349    0.0190    0.2046    0.1148
    48 C4     *s         0.0053    0.0055   -0.0022    0.0032    0.0179    0.0024    0.1551    0.0019    0.1639    0.0829
    49 C4     2px        0.0001    0.0005    0.0001    0.0001    0.0018    0.0000   -0.0849    0.0206   -0.0374   -0.0715
    50 C4     *px       -0.0016   -0.0009    0.0008   -0.0011   -0.0041   -0.0009   -0.0225    0.0152   -0.0131   -0.0252
    51 C4     2py        0.0001   -0.0002    0.0000    0.0000    0.0000   -0.0001    0.0016    0.1006    0.1377   -0.2027
    52 C4     *py       -0.0011    0.0022   -0.0002   -0.0000    0.0011    0.0001   -0.0030    0.0014    0.0122   -0.0353
    53 C4     2pz       -0.0000   -0.0000    0.0000   -0.0000   -0.0000   -0.0000    0.0001    0.0000    0.0002    0.0002
    54 C4     *pz       -0.0000   -0.0000   -0.0000    0.0000    0.0000    0.0000    0.0000   -0.0000    0.0000    0.0001
    55 C4     *200      -0.0002   -0.0003    0.0000   -0.0001    0.0013   -0.0000   -0.0010   -0.0018   -0.0038    0.0010
    56 C4     *110      -0.0001    0.0001    0.0000   -0.0001   -0.0001   -0.0000    0.0048   -0.0070   -0.0072    0.0079
    57 C4     *101       0.0000    0.0000    0.0000   -0.0000   -0.0000   -0.0000   -0.0000    0.0000   -0.0000   -0.0000
    58 C4     *020      -0.0004   -0.0001    0.0000   -0.0001    0.0006   -0.0000    0.0086   -0.0005    0.0063    0.0043
    59 C4     *011       0.0000   -0.0000    0.0000    0.0000   -0.0000    0.0000    0.0000    0.0000    0.0000   -0.0000
    60 C4     *002      -0.0001   -0.0002   -0.0000   -0.0000    0.0013   -0.0001   -0.0058    0.0003   -0.0040   -0.0027
    61 H5     1s        -0.0000   -0.0004    0.0000   -0.0000   -0.0000   -0.0001    0.0363    0.0449    0.0740   -0.1347
    62 H5     *s        -0.0001    0.0019    0.0003   -0.0003   -0.0008   -0.0002    0.0044    0.0193    0.0082   -0.0573
    63 H6     1s         0.0000   -0.0000   -0.0004    0.0001    0.0001   -0.0000    0.0236    0.0891   -0.0445   -0.0064
    64 H6     *s         0.0003    0.0004    0.0019    0.0003    0.0002    0.0007    0.0031    0.0184    0.0053   -0.0063
    65 C7     1s         0.1588   -0.0044    0.0424   -0.9819   -0.0025   -0.0205   -0.0755    0.0667    0.0747    0.1088
    66 C7     2s         0.0041   -0.0002    0.0013   -0.0275    0.0001   -0.0012    0.1421   -0.1292   -0.1419   -0.2144
    67 C7     *s         0.0039    0.0015   -0.0016    0.0158    0.0033    0.0067    0.0819   -0.1137   -0.0997   -0.1868
    68 C7     2px       -0.0002   -0.0000   -0.0001   -0.0004    0.0001    0.0005    0.1175   -0.0789   -0.0844   -0.0039
    69 C7     *px        0.0021    0.0005   -0.0007    0.0017    0.0008    0.0011    0.0268    0.0010   -0.0331    0.0162
    70 C7     2py        0.0000    0.0000    0.0001    0.0002    0.0001   -0.0010   -0.0285    0.0428    0.0550    0.1602
    71 C7     *py        0.0012    0.0007   -0.0004    0.0027    0.0011    0.0030   -0.0192    0.0095    0.0343    0.0898
    72 C7     2pz       -0.0000    0.0000    0.0000   -0.0000   -0.0000   -0.0000   -0.0001    0.0000   -0.0001   -0.0004
    73 C7     *pz       -0.0000    0.0000   -0.0000    0.0000    0.0000   -0.0000   -0.0001    0.0000    0.0000   -0.0002
    74 C7     *200      -0.0004    0.0000   -0.0001    0.0009   -0.0001   -0.0003    0.0068   -0.0061   -0.0042   -0.0027
    75 C7     *110       0.0000   -0.0000    0.0000    0.0001    0.0000    0.0004    0.0043   -0.0044   -0.0029   -0.0092
    76 C7     *101      -0.0000    0.0000   -0.0000   -0.0000    0.0000    0.0000    0.0000   -0.0000   -0.0000   -0.0000
    77 C7     *020      -0.0003   -0.0000   -0.0000    0.0011   -0.0000   -0.0003   -0.0003    0.0025   -0.0026   -0.0059
    78 C7     *011      -0.0000    0.0000   -0.0000    0.0000    0.0000   -0.0000   -0.0000    0.0000    0.0000    0.0000
    79 C7     *002      -0.0003   -0.0000   -0.0001    0.0014    0.0000   -0.0001   -0.0038    0.0027    0.0036    0.0044
    80 C8     1s         0.9823   -0.0114   -0.0055    0.1593    0.0279    0.0003   -0.1371    0.0962    0.0521   -0.0543
    81 C8     2s         0.0276   -0.0004   -0.0003    0.0048    0.0010   -0.0000    0.2646   -0.1857   -0.1026    0.1083
    82 C8     *s        -0.0137   -0.0007    0.0018   -0.0085   -0.0073   -0.0031    0.1785   -0.1557   -0.0845    0.1038
    83 C8     2px        0.0000   -0.0000    0.0000   -0.0001    0.0000   -0.0001   -0.0395    0.0452    0.1045    0.2200
    84 C8     *px        0.0010    0.0006   -0.0006    0.0026    0.0009    0.0008   -0.0037    0.0008    0.0088    0.0822
    85 C8     2py        0.0003   -0.0001   -0.0000    0.0001    0.0003   -0.0001    0.0552    0.0187    0.0668    0.1169
    86 C8     *py       -0.0021   -0.0003    0.0007   -0.0019   -0.0034   -0.0010    0.0039    0.0112    0.0147    0.0143
    87 C8     2pz       -0.0000   -0.0000    0.0000   -0.0000   -0.0000   -0.0000   -0.0006    0.0004    0.0002   -0.0004
    88 C8     *pz        0.0000    0.0000   -0.0000   -0.0000   -0.0000    0.0000   -0.0003    0.0002    0.0001   -0.0003
    89 C8     *200      -0.0010   -0.0000    0.0000    0.0001    0.0003    0.0001    0.0053   -0.0050   -0.0056   -0.0048
    90 C8     *110       0.0001   -0.0000    0.0000    0.0001    0.0004    0.0000    0.0033    0.0023    0.0042    0.0019
    91 C8     *101      -0.0000   -0.0000    0.0000    0.0000   -0.0000    0.0000    0.0000    0.0000   -0.0000   -0.0001
    92 C8     *020      -0.0011    0.0000   -0.0000    0.0000    0.0003    0.0000    0.0060   -0.0020    0.0036    0.0103
    93 C8     *011       0.0000    0.0000   -0.0000    0.0000   -0.0000    0.0000    0.0000   -0.0000   -0.0000   -0.0000
    94 C8     *002      -0.0014    0.0000   -0.0000   -0.0001    0.0001   -0.0000   -0.0066    0.0043    0.0019   -0.0026
    95 H9     1s        -0.0000    0.0000   -0.0001    0.0001   -0.0000    0.0002    0.0388   -0.0440   -0.0604   -0.1632
    96 H9     *s         0.0006    0.0002   -0.0000   -0.0014    0.0000    0.0009    0.0116   -0.0062   -0.0248   -0.0683
    97 H10    1s        -0.0002   -0.0001    0.0000   -0.0000   -0.0001   -0.0000    0.0615   -0.0662   -0.0365    0.0545
    98 H10    *s         0.0014   -0.0001    0.0002   -0.0001   -0.0008   -0.0001    0.0028   -0.0159   -0.0009    0.0211


      Orbital                11        12        13        14        15        16        17        18        19        20
      Energy            -0.7145   -0.6672   -0.6217   -0.5704   -0.5942   -0.0028   -0.0308   -0.0292    0.0022    0.0001
      Occ. No.           2.0000    2.0000    2.0000    2.0000    1.9801    1.9310    1.9107    1.8918    1.9475    1.7038

     1 C1     1s        -0.0392    0.0398   -0.0037    0.0053    0.0228    0.0486   -0.0003   -0.0001    0.0001   -0.0504
     2 C1     2s         0.0769   -0.0796    0.0053   -0.0093   -0.0469   -0.0962    0.0005    0.0002   -0.0002    0.1194
     3 C1     *s         0.0813   -0.0833    0.0163   -0.0153   -0.0726   -0.1259    0.0007    0.0002   -0.0004    0.1036
     4 C1     2px       -0.0279    0.0362    0.0136    0.0027    0.0691   -0.3210    0.0011   -0.0000   -0.0005    0.1428
     5 C1     *px       -0.0160    0.0202    0.0161    0.0013    0.0374   -0.1856    0.0007    0.0001   -0.0003    0.1224
     6 C1     2py        0.2825   -0.3070   -0.0962   -0.0580    0.0687    0.0088   -0.0002   -0.0001    0.0000   -0.0492
     7 C1     *py        0.1136   -0.1353   -0.0410   -0.0254    0.0423    0.0079   -0.0000   -0.0001    0.0002    0.0746
     8 C1     2pz       -0.0000    0.0000    0.0000    0.0000   -0.0001   -0.0011   -0.2664   -0.2495    0.1861    0.0002
     9 C1     *pz        0.0000    0.0000    0.0000   -0.0000   -0.0001   -0.0007   -0.1839   -0.2028    0.1199    0.0001
    10 C1     *200       0.0005    0.0005    0.0005    0.0006   -0.0016   -0.0073    0.0000    0.0000   -0.0000   -0.0090
    11 C1     *110      -0.0114    0.0177    0.0042    0.0055   -0.0074    0.0062   -0.0000    0.0000    0.0000   -0.0099
    12 C1     *101       0.0000    0.0000    0.0000    0.0000    0.0000   -0.0000    0.0102   -0.0018   -0.0004    0.0000
    13 C1     *020       0.0090   -0.0090   -0.0031   -0.0028    0.0027    0.0025    0.0000    0.0000   -0.0000    0.0072
    14 C1     *011       0.0000   -0.0000   -0.0000   -0.0000    0.0000    0.0001    0.0149    0.0049   -0.0106   -0.0000
    15 C1     *002      -0.0021    0.0021    0.0002    0.0006    0.0009    0.0012   -0.0000   -0.0000    0.0000    0.0004
    16 C2     1s        -0.0212   -0.0389   -0.0024    0.0179    0.0001    0.0473   -0.0003    0.0002   -0.0001    0.0509
    17 C2     2s         0.0420    0.0776    0.0026   -0.0361    0.0002   -0.0937    0.0006   -0.0004    0.0001   -0.1212
    18 C2     *s         0.0383    0.0818    0.0135   -0.0332    0.0017   -0.1219    0.0006   -0.0005    0.0004   -0.1081
    19 C2     2px        0.0171    0.0395   -0.0123   -0.0391   -0.0086    0.3188   -0.0008    0.0000    0.0006    0.1479
    20 C2     *px        0.0127    0.0207   -0.0152   -0.0190   -0.0019    0.1832   -0.0004    0.0001    0.0003    0.1246
    21 C2     2py        0.2382    0.2359   -0.1315    0.2348   -0.0003    0.0057   -0.0001    0.0001   -0.0000    0.0495
    22 C2     *py        0.0944    0.1067   -0.0570    0.0969   -0.0044    0.0071    0.0001   -0.0000   -0.0002   -0.0740
    23 C2     2pz       -0.0000   -0.0001   -0.0000    0.0001   -0.0000    0.0007    0.2444   -0.2669    0.1939    0.0000
    24 C2     *pz       -0.0000   -0.0001    0.0000    0.0000   -0.0000    0.0005    0.1679   -0.2142    0.1260    0.0001
    25 C2     *200       0.0011   -0.0007    0.0007   -0.0009    0.0007   -0.0076    0.0000   -0.0000   -0.0000    0.0086
    26 C2     *110       0.0088    0.0144   -0.0065    0.0146   -0.0009   -0.0064   -0.0000    0.0000   -0.0000   -0.0100
    27 C2     *101      -0.0000   -0.0000    0.0000    0.0000    0.0000   -0.0000    0.0099    0.0013    0.0005   -0.0000
    28 C2     *020       0.0057    0.0073   -0.0042    0.0056   -0.0009    0.0027    0.0000   -0.0000    0.0000   -0.0068
    29 C2     *011      -0.0000   -0.0000    0.0000   -0.0001   -0.0000   -0.0000   -0.0140    0.0058   -0.0108   -0.0000
    30 C2     *002      -0.0012   -0.0020    0.0004    0.0004    0.0001    0.0012   -0.0000    0.0000   -0.0000   -0.0004
    31 C3     1s         0.0455   -0.0560   -0.0231   -0.0089   -0.1068   -0.0540    0.0003   -0.0000   -0.0001    0.0542
    32 C3     2s        -0.0868    0.1124    0.0460    0.0161    0.2232    0.1164   -0.0007    0.0001    0.0003   -0.1145
    33 C3     *s        -0.0333    0.0401    0.0376    0.0123    0.1782    0.1350   -0.0007   -0.0004    0.0007   -0.0805
    34 C3     2px       -0.0581    0.0638   -0.0226   -0.0210    0.1151   -0.1515    0.0007   -0.0002   -0.0002    0.3595
    35 C3     *px       -0.0121    0.0021   -0.0004   -0.0050    0.0414   -0.0808    0.0005   -0.0004    0.0001    0.3077
    36 C3     2py       -0.0959    0.1051    0.0382    0.0296   -0.3539    0.0259   -0.0001   -0.0001    0.0001    0.0371
    37 C3     *py       -0.0251    0.0165    0.0053    0.0186   -0.0756   -0.0014    0.0000    0.0002    0.0000    0.0404
    38 C3     2pz        0.0001   -0.0002   -0.0000   -0.0000   -0.0000   -0.0014   -0.3161   -0.0919    0.2209    0.0001
    39 C3     *pz        0.0000   -0.0000    0.0000   -0.0000    0.0000   -0.0008   -0.2054   -0.0680    0.1183   -0.0000
    40 C3     *200      -0.0015    0.0013   -0.0042   -0.0022   -0.0000   -0.0055    0.0000   -0.0000   -0.0000    0.0041
    41 C3     *110      -0.0076    0.0096    0.0103    0.0047   -0.0187   -0.0107    0.0000    0.0000   -0.0000    0.0048
    42 C3     *101       0.0000   -0.0000   -0.0000    0.0000   -0.0000   -0.0000   -0.0099   -0.0003    0.0116   -0.0000
    43 C3     *020      -0.0020   -0.0002    0.0039    0.0033    0.0054    0.0049   -0.0000   -0.0000    0.0000    0.0010
    44 C3     *011       0.0000   -0.0000   -0.0000   -0.0000    0.0000   -0.0000   -0.0089   -0.0207    0.0014    0.0000
    45 C3     *002       0.0026   -0.0021   -0.0006   -0.0006   -0.0047    0.0000    0.0000    0.0000   -0.0000   -0.0014
    46 C4     1s         0.0346    0.0519   -0.0255   -0.0299    0.0056   -0.0508    0.0003   -0.0001    0.0000   -0.0537
    47 C4     2s        -0.0681   -0.1057    0.0508    0.0642   -0.0112    0.1102   -0.0008    0.0002   -0.0001    0.1131
    48 C4     *s        -0.0207   -0.0457    0.0366    0.0782   -0.0151    0.1333   -0.0006    0.0008   -0.0006    0.0846
    49 C4     2px        0.0556    0.0576    0.0283   -0.0435    0.0212    0.1490   -0.0002    0.0001    0.0006    0.3624
    50 C4     *px        0.0046    0.0029    0.0043   -0.0180    0.0156    0.0783   -0.0003   -0.0003    0.0005    0.3110
    51 C4     2py       -0.1164   -0.0491    0.0669   -0.3281    0.0094    0.0322   -0.0001    0.0001    0.0000   -0.0371
    52 C4     *py       -0.0118   -0.0057    0.0129   -0.0857    0.0038    0.0007    0.0001   -0.0004   -0.0000   -0.0430
    53 C4     2pz       -0.0002   -0.0003    0.0001    0.0002    0.0000    0.0008    0.3009   -0.1134    0.2261   -0.0003
    54 C4     *pz        0.0000   -0.0000    0.0000   -0.0000    0.0000    0.0005    0.2002   -0.0865    0.1247   -0.0004
    55 C4     *200      -0.0023   -0.0010   -0.0047    0.0008   -0.0007   -0.0053    0.0000   -0.0000   -0.0000   -0.0040
    56 C4     *110       0.0079    0.0057   -0.0124    0.0188   -0.0023    0.0102   -0.0000   -0.0000    0.0000    0.0047
    57 C4     *101       0.0000    0.0000    0.0000   -0.0000    0.0000    0.0000   -0.0093    0.0004   -0.0118    0.0000
    58 C4     *020       0.0018   -0.0000    0.0043    0.0005    0.0002    0.0044   -0.0000    0.0000   -0.0000   -0.0015
    59 C4     *011      -0.0000   -0.0000    0.0000   -0.0001   -0.0000    0.0000    0.0078   -0.0218    0.0018    0.0000
    60 C4     *002       0.0016    0.0019   -0.0006   -0.0006    0.0002    0.0001    0.0000   -0.0000    0.0000    0.0014
    61 H5     1s         0.1485    0.1734   -0.0783    0.1171   -0.0055    0.0352   -0.0001    0.0001    0.0001   -0.0137
    62 H5     *s         0.0865    0.0998   -0.0554    0.0933   -0.0066    0.0466   -0.0003    0.0001    0.0001    0.0272
    63 H6     1s         0.1933   -0.2132   -0.0566   -0.0437    0.0162    0.0365   -0.0001   -0.0000    0.0000    0.0152
    64 H6     *s         0.1144   -0.1267   -0.0409   -0.0346    0.0295    0.0472   -0.0002   -0.0001   -0.0000   -0.0236
    65 C7     1s         0.0342    0.0349    0.0164   -0.0169   -0.0861   -0.0079   -0.0000    0.0002    0.0001   -0.0232
    66 C7     2s        -0.0668   -0.0716   -0.0377    0.0283    0.1782    0.0172    0.0001   -0.0005   -0.0003    0.0595
    67 C7     *s        -0.0364   -0.0551   -0.0086    0.0524    0.1395    0.0230    0.0002    0.0001   -0.0005    0.0359
    68 C7     2px       -0.0320    0.0685   -0.2850   -0.1832   -0.2108    0.0163   -0.0000   -0.0002    0.0000    0.0103
    69 C7     *px       -0.0163    0.0494   -0.1102   -0.0718   -0.0816    0.0130    0.0001    0.0000   -0.0001    0.0154
    70 C7     2py        0.0253    0.0843   -0.1949   -0.1321    0.3165    0.0213   -0.0000   -0.0000    0.0001    0.0309
    71 C7     *py        0.0398    0.0669   -0.0870   -0.1036    0.1226    0.0133   -0.0000    0.0007   -0.0001   -0.0650
    72 C7     2pz       -0.0002   -0.0002   -0.0002    0.0000    0.0001   -0.0009   -0.0986    0.3005    0.2446    0.0000
    73 C7     *pz       -0.0001   -0.0001    0.0000    0.0001    0.0001   -0.0006   -0.0726    0.2335    0.1518   -0.0000
    74 C7     *200       0.0002   -0.0003   -0.0059   -0.0028   -0.0032    0.0022   -0.0000   -0.0000   -0.0000   -0.0068
    75 C7     *110      -0.0065   -0.0109    0.0038    0.0199   -0.0207   -0.0047    0.0000   -0.0000   -0.0000    0.0046
    76 C7     *101      -0.0000   -0.0000   -0.0001   -0.0000   -0.0000    0.0000    0.0100    0.0167    0.0087   -0.0000
    77 C7     *020      -0.0039   -0.0017    0.0115    0.0086    0.0072   -0.0029    0.0000   -0.0000   -0.0000    0.0062
    78 C7     *011       0.0000    0.0000   -0.0000   -0.0000    0.0000   -0.0000   -0.0102   -0.0022    0.0088    0.0000
    79 C7     *002       0.0017    0.0012   -0.0000   -0.0013   -0.0042    0.0001   -0.0000    0.0000    0.0000    0.0005
    80 C8     1s        -0.0510   -0.0335    0.0158    0.0156    0.0194   -0.0052   -0.0001   -0.0004   -0.0004    0.0227
    81 C8     2s         0.1005    0.0691   -0.0369   -0.0288   -0.0442    0.0111    0.0003    0.0009    0.0008   -0.0585
    82 C8     *s         0.1161    0.0458   -0.0074   -0.0214   -0.0305    0.0156    0.0001    0.0005    0.0010   -0.0367
    83 C8     2px        0.1447    0.0353    0.2857    0.1458    0.0680   -0.0208    0.0002    0.0001    0.0001    0.0022
    84 C8     *px        0.0688    0.0346    0.1086    0.0566    0.0314   -0.0147    0.0002    0.0003    0.0000    0.0104
    85 C8     2py       -0.1159   -0.1149   -0.2226    0.3118   -0.0129    0.0136   -0.0001   -0.0003   -0.0003   -0.0332
    86 C8     *py       -0.0683   -0.0789   -0.0983    0.1666   -0.0215    0.0073   -0.0003   -0.0010    0.0000    0.0643
    87 C8     2pz       -0.0005   -0.0004   -0.0002    0.0004    0.0001   -0.0002    0.1112    0.2935    0.2431    0.0001
    88 C8     *pz       -0.0003   -0.0002   -0.0001    0.0002    0.0001   -0.0001    0.0850    0.2355    0.1536    0.0001
    89 C8     *200      -0.0007    0.0006   -0.0059   -0.0025    0.0004    0.0022   -0.0000    0.0000    0.0000    0.0071
    90 C8     *110      -0.0097   -0.0119   -0.0062    0.0272   -0.0107    0.0038    0.0000   -0.0000    0.0000    0.0050
    91 C8     *101      -0.0001   -0.0000   -0.0001   -0.0000   -0.0000    0.0001    0.0091   -0.0175   -0.0086    0.0000
    92 C8     *020       0.0058    0.0015    0.0119   -0.0007    0.0007   -0.0030    0.0000   -0.0000    0.0000   -0.0069
    93 C8     *011       0.0001    0.0001    0.0001   -0.0001    0.0000    0.0000    0.0099   -0.0035    0.0088   -0.0000
    94 C8     *002      -0.0022   -0.0012   -0.0002    0.0007    0.0003    0.0002   -0.0000   -0.0000   -0.0000   -0.0005
    95 H9     1s        -0.0425   -0.0952    0.1725    0.1615   -0.0452   -0.0210    0.0000   -0.0001   -0.0002    0.0189
    96 H9     *s        -0.0270   -0.0451    0.1244    0.1232   -0.0659   -0.0289    0.0001    0.0002   -0.0002   -0.0075
    97 H10    1s         0.1438    0.1003    0.1886   -0.1528    0.0286   -0.0195    0.0001   -0.0001    0.0001   -0.0214
    98 H10    *s         0.0748    0.0480    0.1358   -0.1109    0.0437   -0.0263    0.0000   -0.0004    0.0002    0.0052


      Orbital                21        22        23        24        25        26
      Energy             0.0001    0.0008    0.0018   -0.0028   -0.0074   -0.0047
      Occ. No.           0.3014    0.1178    0.0869    0.0486    0.0630    0.0175

     1 C1     1s         0.0004    0.0000   -0.0003   -0.0001    0.0656   -0.0255
     2 C1     2s        -0.0032   -0.0001    0.0010    0.0005   -0.2300    0.0481
     3 C1     *s        -0.0581   -0.0001    0.0025    0.0001   -0.3337    0.1712
     4 C1     2px       -0.2308    0.0003    0.0025    0.0006   -0.5555    0.1408
     5 C1     *px       -0.1747    0.0003    0.0021    0.0003   -0.3851    0.1258
     6 C1     2py       -0.0422    0.0001    0.0001   -0.0001   -0.0125   -0.0185
     7 C1     *py        0.0351   -0.0000   -0.0009    0.0003    0.0002   -0.1102
     8 C1     2pz        0.0002    0.3758   -0.3306   -0.3040   -0.0020   -0.0001
     9 C1     *pz        0.0001    0.2270   -0.2210   -0.1779   -0.0015    0.0000
    10 C1     *200      -0.0138    0.0000    0.0000   -0.0000   -0.0000    0.0158
    11 C1     *110      -0.0081    0.0000   -0.0000   -0.0000    0.0109    0.0169
    12 C1     *101      -0.0000    0.0035   -0.0279   -0.0187   -0.0001   -0.0001
    13 C1     *020       0.0131    0.0000   -0.0001   -0.0000    0.0125   -0.0060
    14 C1     *011      -0.0000   -0.0041   -0.0101   -0.0064   -0.0001   -0.0000
    15 C1     *002       0.0001   -0.0000    0.0000    0.0000    0.0009   -0.0093
    16 C2     1s         0.0014    0.0001    0.0004   -0.0000   -0.0681    0.0077
    17 C2     2s        -0.0061   -0.0004   -0.0012    0.0001    0.2373   -0.0359
    18 C2     *s        -0.0699   -0.0005   -0.0030    0.0004    0.3520   -0.0891
    19 C2     2px        0.2378   -0.0001    0.0020    0.0009   -0.5588    0.0650
    20 C2     *px        0.1797   -0.0001    0.0018    0.0005   -0.3903    0.0490
    21 C2     2py       -0.0431    0.0000   -0.0001   -0.0000    0.0080   -0.0037
    22 C2     *py        0.0381    0.0000    0.0011   -0.0004   -0.0054    0.0288
    23 C2     2pz       -0.0006   -0.3736   -0.3380    0.3280   -0.0015    0.0001
    24 C2     *pz       -0.0004   -0.2265   -0.2140    0.1728   -0.0011    0.0001
    25 C2     *200      -0.0137    0.0001    0.0000   -0.0001    0.0019    0.0045
    26 C2     *110       0.0079   -0.0000   -0.0001    0.0000    0.0087   -0.0031
    27 C2     *101      -0.0000    0.0053    0.0291   -0.0198    0.0001    0.0000
    28 C2     *020       0.0129    0.0000    0.0001   -0.0000   -0.0137    0.0005
    29 C2     *011       0.0000    0.0030   -0.0104    0.0060   -0.0000   -0.0000
    30 C2     *002       0.0002   -0.0000   -0.0001    0.0001   -0.0016   -0.0000
    31 C3     1s         0.0424    0.0000   -0.0001   -0.0000    0.0237    0.1164
    32 C3     2s        -0.1195   -0.0000    0.0009    0.0002   -0.1251   -0.5863
    33 C3     *s        -0.1574   -0.0005   -0.0010    0.0002   -0.1124   -0.6103
    34 C3     2px        0.4137   -0.0004   -0.0012   -0.0002    0.2344   -0.4077
    35 C3     *px        0.2840   -0.0004   -0.0012    0.0001    0.1101   -0.3175
    36 C3     2py        0.0741    0.0001   -0.0003    0.0001    0.1012    0.6934
    37 C3     *py        0.0305    0.0003   -0.0001    0.0003    0.0430    0.1705
    38 C3     2pz        0.0002   -0.1458    0.4721    0.4172    0.0025    0.0001
    39 C3     *pz        0.0002   -0.0913    0.2932    0.2345    0.0016    0.0004
    40 C3     *200      -0.0109    0.0000    0.0001   -0.0000   -0.0159    0.0411
    41 C3     *110      -0.0069    0.0000    0.0001    0.0000   -0.0221    0.0215
    42 C3     *101      -0.0000    0.0038   -0.0164   -0.0210   -0.0001   -0.0001
    43 C3     *020       0.0128    0.0000   -0.0001   -0.0001    0.0205   -0.0038
    44 C3     *011       0.0000    0.0299   -0.0135   -0.0053   -0.0001    0.0001
    45 C3     *002       0.0017   -0.0000    0.0000    0.0001    0.0040    0.0235
    46 C4     1s         0.0402    0.0001    0.0001    0.0001   -0.0138    0.0055
    47 C4     2s        -0.1101   -0.0003   -0.0008    0.0000    0.0799   -0.0238
    48 C4     *s        -0.1371   -0.0007    0.0016   -0.0014    0.0579    0.1066
    49 C4     2px       -0.4141    0.0004   -0.0005   -0.0006    0.2514   -0.0024
    50 C4     *px       -0.2996    0.0004   -0.0010   -0.0001    0.1410   -0.0443
    51 C4     2py        0.0713    0.0005    0.0003    0.0003   -0.0554    0.0221
    52 C4     *py        0.0338    0.0003    0.0003    0.0003   -0.0319    0.0048
    53 C4     2pz        0.0003    0.1508    0.4514   -0.3888    0.0015    0.0001
    54 C4     *pz        0.0002    0.0844    0.3225   -0.2851    0.0013    0.0002
    55 C4     *200      -0.0119    0.0000   -0.0000   -0.0001    0.0182   -0.0027
    56 C4     *110       0.0063   -0.0000    0.0001   -0.0000   -0.0193    0.0025
    57 C4     *101       0.0000    0.0051    0.0189   -0.0230    0.0000   -0.0000
    58 C4     *020       0.0135    0.0000    0.0001   -0.0000   -0.0197    0.0038
    59 C4     *011      -0.0000   -0.0251   -0.0012   -0.0080   -0.0000    0.0000
    60 C4     *002       0.0016   -0.0000   -0.0001    0.0001   -0.0028   -0.0001
    61 H5     1s         0.0572    0.0001    0.0002   -0.0001   -0.0311   -0.0059
    62 H5     *s         0.0422    0.0001   -0.0001   -0.0001   -0.0305   -0.0137
    63 H6     1s         0.0580    0.0000   -0.0002   -0.0001    0.0260   -0.0324
    64 H6     *s         0.0427    0.0001    0.0001   -0.0002    0.0205    0.0060
    65 C7     1s        -0.0061   -0.0001    0.0000   -0.0000   -0.0281   -0.1161
    66 C7     2s         0.0217    0.0003   -0.0002    0.0002    0.0828    0.5333
    67 C7     *s         0.0135    0.0007    0.0014    0.0002    0.0593    0.6540
    68 C7     2px       -0.1238   -0.0002    0.0006   -0.0003   -0.0513   -0.4158
    69 C7     *px       -0.0918   -0.0001    0.0009   -0.0004   -0.0660   -0.0317
    70 C7     2py        0.0541    0.0001   -0.0006   -0.0001    0.0979    0.6289
    71 C7     *py       -0.0097    0.0003    0.0007   -0.0002    0.0604    0.3645
    72 C7     2pz        0.0001   -0.3922   -0.1539   -0.4550   -0.0013    0.0006
    73 C7     *pz        0.0001   -0.2488   -0.1137   -0.2752   -0.0009    0.0006
    74 C7     *200      -0.0061   -0.0001    0.0000   -0.0001   -0.0057   -0.0310
    75 C7     *110       0.0049   -0.0000    0.0001    0.0000   -0.0065   -0.0657
    76 C7     *101      -0.0000    0.0145   -0.0179    0.0053   -0.0001    0.0000
    77 C7     *020       0.0073   -0.0001   -0.0000   -0.0001    0.0010    0.0005
    78 C7     *011       0.0000   -0.0149    0.0077   -0.0097    0.0000   -0.0000
    79 C7     *002      -0.0005    0.0001   -0.0000    0.0001   -0.0016   -0.0194
    80 C8     1s        -0.0049   -0.0003    0.0000   -0.0003    0.0193    0.0082
    81 C8     2s         0.0159    0.0008   -0.0001    0.0009   -0.0416   -0.0001
    82 C8     *s         0.0038    0.0019   -0.0018    0.0025   -0.0167   -0.1681
    83 C8     2px        0.1156    0.0004    0.0001    0.0004   -0.0159    0.0343
    84 C8     *px        0.0907    0.0001    0.0007    0.0001   -0.0602    0.0678
    85 C8     2py        0.0433   -0.0003    0.0005   -0.0004   -0.0493   -0.0095
    86 C8     *py       -0.0216    0.0001   -0.0007    0.0004   -0.0398   -0.1296
    87 C8     2pz        0.0000    0.3737   -0.1448    0.4067    0.0000   -0.0003
    88 C8     *pz       -0.0001    0.2668   -0.1440    0.3317   -0.0001   -0.0002
    89 C8     *200      -0.0065   -0.0001    0.0000   -0.0002    0.0038   -0.0011
    90 C8     *110      -0.0066    0.0000    0.0000   -0.0000   -0.0011   -0.0092
    91 C8     *101      -0.0000    0.0116    0.0194    0.0008    0.0001   -0.0001
    92 C8     *020       0.0080   -0.0001    0.0000   -0.0002   -0.0013   -0.0019
    93 C8     *011       0.0000    0.0074    0.0107   -0.0036    0.0001    0.0000
    94 C8     *002      -0.0003    0.0001   -0.0000    0.0002    0.0009    0.0042
    95 H9     1s         0.0371   -0.0002    0.0001   -0.0001   -0.0098   -0.0390
    96 H9     *s         0.0275   -0.0002    0.0004   -0.0004   -0.0167   -0.0045
    97 H10    1s         0.0394   -0.0004    0.0000   -0.0005    0.0067    0.0223
    98 H10    *s         0.0263   -0.0004   -0.0004   -0.0005    0.0143   -0.0065
--

      Von Neumann Entropy (Root   1) =  1.63252


      Mulliken population analysis for root number:  1
      -----------------------------------------------


++    Molecular charges:
      ------------------

      Mulliken charges per centre and basis function type
      ---------------------------------------------------

                C1      C2      C3      C4      H5      H6      C7      C8      H9      H10   
      1s       1.9968  1.9968  1.9968  1.9968  0.5130  0.5127  1.9966  1.9966  0.5218  0.5250
      2s       0.6857  0.6861  0.6941  0.6891  0.0000  0.0000  0.6752  0.6724  0.0000  0.0000
      2px      0.5389  0.5336  0.6021  0.6025  0.0000  0.0000  0.7280  0.7298  0.0000  0.0000
      2pz      0.5828  0.5844  0.5584  0.5500  0.0000  0.0000  0.5626  0.5555  0.0000  0.0000
      2py      0.7827  0.7794  0.7632  0.7550  0.0000  0.0000  0.7193  0.7225  0.0000  0.0000
      *s       0.5701  0.5723  0.4829  0.4901  0.2476  0.2488  0.5096  0.5082  0.2670  0.2591
      *px      0.3386  0.3358  0.3665  0.3712  0.0000  0.0000  0.2246  0.2252  0.0000  0.0000
      *pz      0.4555  0.4579  0.3764  0.3833  0.0000  0.0000  0.4349  0.4441  0.0000  0.0000
      *py      0.2719  0.2729  0.0895  0.0962  0.0000  0.0000  0.3080  0.3089  0.0000  0.0000
      *200    -0.0003 -0.0006 -0.0077 -0.0064  0.0000  0.0000  0.0212  0.0218  0.0000  0.0000
      *110     0.0102  0.0100  0.0138  0.0141  0.0000  0.0000  0.0168  0.0174  0.0000  0.0000
      *101     0.0018  0.0017  0.0028  0.0027  0.0000  0.0000  0.0069  0.0069  0.0000  0.0000
      *020     0.0481  0.0483  0.0291  0.0312  0.0000  0.0000  0.0267  0.0289  0.0000  0.0000
      *011     0.0054  0.0053  0.0091  0.0091  0.0000  0.0000  0.0028  0.0029  0.0000  0.0000
      *002    -0.0180 -0.0179 -0.0154 -0.0153  0.0000  0.0000 -0.0184 -0.0185  0.0000  0.0000
      Total    6.2703  6.2659  5.9617  5.9697  0.7606  0.7615  6.2149  6.2226  0.7888  0.7840

      N-E     -0.2703 -0.2659  0.0383  0.0303  0.2394  0.2385 -0.2149 -0.2226  0.2112  0.2160

      Total electronic charge=   40.000000

      Total            charge=   -0.000000
--



      Expectation values of various properties for root number:  1
      -----------------------------------------------------------


++    Molecular properties:
      ---------------------

      Charge (e):
                      =   -0.0000
      Dipole Moment (Debye):
      Origin of the operator (Ang)=    0.0000    0.0000    0.0000
                   X= -3.3969E-02               Y=  2.9759E-01               Z= -2.6316E-03           Total=  2.9953E-01
      Quadrupole Moment (Debye*Ang):
      Origin of the operator (Ang)=    0.0013   -0.0138    0.0003
                  XX= -3.6304E+01              XY= -2.3513E-03              XZ= -3.2508E-03              YY= -2.5581E+01
                  YZ=  3.7832E-03              ZZ= -3.7638E+01
      In traceless form (Debye*Ang)
                  XX= -4.6948E+00              XY= -3.5269E-03              XZ= -4.8761E-03              YY=  1.1390E+01
                  YZ=  5.6747E-03              ZZ= -6.6950E+00
--


      Input file to MOLDEN was generated!

      Average orbitals are written to the RASORB file
      Natural orbitals for root   1 are written to the RASORB.1 file
      Spin density orbitals for root   1 are written to the SPDORB.1 file

--- Stop Module: rasscf at Thu Jul  4 02:01:25 2024 /rc=_RC_ALL_IS_WELL_ ---
*** files: ts.rasscf.molden ts.RasOrb.1 ts.RasOrb ts.SpdOrb.1 xmldump
    saved to directory /home/kenya/molcas_test/0625_re
--- Module rasscf spent 14 minutes 44 seconds ---

--- Start Module: alaska at Thu Jul  4 02:01:25 2024 ---

()()()()()()()()()()()()()()()()()()()()()()()()()()()()()()()()()()()()()()()()()()()()()()()()()()

                                              &ALASKA

                                   only a single process is used
                       available to each process: 2.0 GB of memory, 1 thread
                                             pid: 56391
()()()()()()()()()()()()()()()()()()()()()()()()()()()()()()()()()()()()()()()()()()()()()()()()()()


                     Threshold for contributions to the gradient: 1.000E-07


                    ********************************************
                    * Symmetry Adapted Cartesian Displacements *
                    ********************************************


           Irreducible representation : a  
           Basis function(s) of irrep: x, y, xy, Rz, z, xz, Ry, yz, Rx, I                                              

 Basis Label        Type   Center Phase
   1   C1           x         1     1
   2   C1           y         1     1
   3   C1           z         1     1
   4   C2           x         2     1
   5   C2           y         2     1
   6   C2           z         2     1
   7   C3           x         3     1
   8   C3           y         3     1
   9   C3           z         3     1
  10   C4           x         4     1
  11   C4           y         4     1
  12   C4           z         4     1
  13   H5           x         5     1
  14   H5           y         5     1
  15   H5           z         5     1
  16   H6           x         6     1
  17   H6           y         6     1
  18   H6           z         6     1
  19   C7           x         7     1
  20   C7           y         7     1
  21   C7           z         7     1
  22   C8           x         8     1
  23   C8           y         8     1
  24   C8           z         8     1
  25   H9           x         9     1
  26   H9           y         9     1
  27   H9           z         9     1
  28   H10          x        10     1
  29   H10          y        10     1
  30   H10          z        10     1

                     No automatic utilization of translational and rotational invariance of the energy is employed.

 Conventional ERI gradients!

 **************************************************
 *                                                *
 *              Molecular gradients               *
 *                                                *
 **************************************************

  Irreducible representation: a  
 ------------------------------------------------------------------------------------------
                              X                       Y                       Z
 ------------------------------------------------------------------------------------------
  C1               -4.79030387733115E-03   -3.79111455776027E-03   -1.12751227154297E-04
  C2                3.13104677804021E-03    1.46591747165932E-02    2.20347370808005E-04
  C3                4.51045901443514E-03   -5.40922531141241E-04    8.55680295051061E-05
  C4                2.79379915777334E-03   -8.18157007322018E-03   -3.15408085906792E-04
  H5               -1.87215628058413E-03    1.81453314906044E-04   -2.68383688207269E-05
  H6                1.11551525567855E-05    1.27106432723956E-04    4.20824265054035E-06
  C7                3.05276785966173E-02    1.15394661044350E-02   -2.89869413772632E-04
  C8               -3.01342944840624E-02   -6.65459894320453E-03    5.54074020009010E-04
  H9               -3.60490461062390E-03   -6.91386813282735E-03    8.05275194700498E-05
  H10              -5.72479446868668E-04   -4.25126330471759E-04   -1.99858086788855E-04
 ------------------------------------------------------------------------------------------

--- Stop Module: alaska at Thu Jul  4 02:01:41 2024 /rc=_RC_ALL_IS_WELL_ ---
*** files: xmldump
    saved to directory /home/kenya/molcas_test/0625_re
--- Module alaska spent 15 seconds ---

--- Start Module: slapaf at Thu Jul  4 02:01:41 2024 ---

()()()()()()()()()()()()()()()()()()()()()()()()()()()()()()()()()()()()()()()()()()()()()()()()()()

                                              &SLAPAF

                                   only a single process is used
                       available to each process: 2.0 GB of memory, 1 thread
                                             pid: 56557
()()()()()()()()()()()()()()()()()()()()()()()()()()()()()()()()()()()()()()()()()()()()()()()()()()



++       Slapaf input parameters:
         ------------------------

 Maximum number of iterations:              2000
 Convergence test a la Schlegel.
 Convergence criterion on gradient/para.<=: 3.0E-04
 Convergence criterion on step/parameter<=: 3.0E-04
 Convergence criterion on energy change <=: 0.0E+00
 Parameters for step-restricted optimization
 Maximum step length (initial seed):       3.00E-01

 -RFO activated with parameters:
   Maximum number of data points used in RFO:      5
 -Constrained optimization.

 -Optimization for minimum.
  Optimization method: RS-RFO.

 -Initial Hessian guessed by Hessian Model Function (HMF).
  HMF augmented with weak interactions.

 -Hessian update method: Broyden-Fletcher-Goldfarb-Shanno
  Maximum number of points in Hessian update:  5

 -Relaxation will be done on non-redundant internal coordinates, based on
  force constant weighted redundant internal coordinates.

--

 ******************************************
 * Statistics of the internal coordinates *
 ******************************************
 Translations and Rotations:         0
 Bonds                     :         9
 Angles                    :        12
 Torsions                  :        10
 Out-of-plane angles       :         2


++ Constraints section
                                  CONSTRAINTS

********************************************************************************
A = BOND C1 C2
VALUES
A = 1.9 ANGSTROM
********************************************************************************


 *************************************************************
 * Values of the primitive constraints                       *
 *************************************************************
 A        : Bond Length=  1.900065 / Angstrom  3.590603 / bohr


 *******************************************
 * Values of the constraints   / au or rad *
 *******************************************
   Label        C         C0
 Cns001      3.590603  3.590480

--


**********************************************************************************************************************
*                                    Energy Statistics for Geometry Optimization                                     *
**********************************************************************************************************************
                       Energy     Grad      Grad              Step                 Estimated   Geom       Hessian     
Iter      Energy       Change     Norm      Max    Element    Max     Element     Final Energy Update Update   Index  
  1   -229.50419369  0.00000000 0.035463  0.026364 nrc021   0.034751  nrc003     -229.50501997 RS-RFO  None      0    

       +----------------------------------+----------------------------------+
       +    Cartesian Displacements       +    Gradient in internals         +
       +  Value      Threshold Converged? +  Value      Threshold Converged? +
 +-----+----------------------------------+----------------------------------+
 + RMS + 1.7637E-02  1.2000E-03     No    + 7.2389E-03  3.0000E-04     No    +
 +-----+----------------------------------+----------------------------------+
 + Max + 2.9046E-02  1.8000E-03     No    + 2.6364E-02  4.5000E-04     No    +
 +-----+----------------------------------+----------------------------------+

 Convergence not reached yet!

*****************************************************************************************************************
*****************************************************************************************************************

++ Geometry section

********************************************************************************
  Geometrical information of the new structure
********************************************************************************


 *********************************************************
 * Nuclear coordinates for the next iteration / Bohr     *
 *********************************************************
  ATOM              X               Y               Z     
  C1              -1.794038        2.276207        0.000601
  C2               1.796569        2.264974       -0.000839
  C3              -2.644536        0.003929        0.000243
  C4               2.629984       -0.017738        0.001755
  H5               2.470946        4.162073        0.000146
  H6              -2.461626        4.175707        0.000448
  C7              -1.295218       -2.357206        0.000502
  C8               1.296875       -2.347772       -0.002613
  H9              -2.295744       -4.127015       -0.001424
  H10              2.296788       -4.112061        0.001181


 *********************************************************
 * Nuclear coordinates for the next iteration / Angstrom *
 *********************************************************
  ATOM              X               Y               Z     
  C1              -0.949364        1.204517        0.000318
  C2               0.950703        1.198573       -0.000444
  C3              -1.399428        0.002079        0.000129
  C4               1.391727       -0.009386        0.000929
  H5               1.307568        2.202474        0.000077
  H6              -1.302636        2.209689        0.000237
  C7              -0.685400       -1.247380        0.000266
  C8               0.686277       -1.242387       -0.001383
  H9              -1.214855       -2.183922       -0.000754
  H10              1.215408       -2.176009        0.000625


                    *************************************** 
                    *    InterNuclear Distances / Bohr    * 
                    *************************************** 

               1 C1            2 C2            3 C3            4 C4            5 H5    
    1 C1       0.000000
    2 C2       3.590625        0.000000
    3 C3       2.426231        4.983547        0.000000
    4 C4       4.983388        2.430095        5.274565        0.000000
    5 H5       4.663323        2.013398        6.592293        4.182835        0.000000
    6 H6       2.013398        4.667240        4.175786        6.596171        4.932591
    7 C7       4.660187        5.560908        2.719488        4.569499        7.528943
    8 C8       5.561919        4.639733        4.589687        2.684447        6.614872
    9 H9       6.422847        7.589765        4.145643        6.414745        9.561920
   10 H10      7.585831        6.396624        6.431023        4.107859        8.275967

               6 H6            7 C7            8 C8            9 H9           10 H10   
    6 H6       0.000000
    7 C7       6.636223        0.000000
    8 C8       7.528753        2.592112        0.000000
    9 H9       8.304378        2.033047        4.009067        0.000000
   10 H10      9.556652        3.997752        2.027943        4.592556        0.000000

                    ******************************************* 
                    *    InterNuclear Distances / Angstrom    * 
                    ******************************************* 

               1 C1            2 C2            3 C3            4 C4            5 H5    
    1 C1       0.000000
    2 C2       1.900077        0.000000
    3 C3       1.283906        2.637180        0.000000
    4 C4       2.637095        1.285951        2.791179        0.000000
    5 H5       2.467724        1.065444        3.488491        2.213461        0.000000
    6 H6       1.065444        2.469797        2.209731        3.490543        2.610215
    7 C7       2.466065        2.942706        1.439091        2.418075        3.984145
    8 C8       2.943241        2.455241        2.428758        1.420548        3.500439
    9 H9       3.398824        4.016331        2.193780        3.394537        5.059950
   10 H10      4.014249        3.384948        3.403151        2.173785        4.379453

               6 H6            7 C7            8 C8            9 H9           10 H10   
    6 H6       0.000000
    7 C7       3.511738        0.000000
    8 C8       3.984044        1.371687        0.000000
    9 H9       4.394488        1.075842        2.121507        0.000000
   10 H10      5.057162        2.115519        1.073141        2.430276        0.000000

                    ************************************** 
                    *    Valence Bond Angles / Degree    * 
                    ************************************** 
                          Atom centers                 Phi
                      3 C3       1 C1       6 H6       140.12
                      4 C4       2 C2       5 H5       140.37
                      1 C1       3 C3       7 C7       129.73
                      2 C2       4 C4       8 C8       130.17
                      3 C3       7 C7       8 C8       119.54
                      3 C3       7 C7       9 H9       120.77
                      8 C8       7 C7       9 H9       119.69
                      4 C4       8 C8       7 C7       119.98
                      4 C4       8 C8      10 H10      120.68
                      7 C7       8 C8      10 H10      119.33

           ***************************************************************
           *              Valence Dihedral Angles / Degree               *
           ***************************************************************
                    Atom centers                       Phi1     Phi2     Theta 
           6 H6       1 C1       3 C3       7 C7        140.12   129.73   180.00
           5 H5       2 C2       4 C4       8 C8        140.37   130.17  -179.94
           1 C1       3 C3       7 C7       8 C8        129.73   119.54    -0.10
           1 C1       3 C3       7 C7       9 H9        129.73   120.77  -179.95
           2 C2       4 C4       8 C8       7 C7        130.17   119.98    -0.29
           2 C2       4 C4       8 C8      10 H10       130.17   120.68  -179.98
           3 C3       7 C7       8 C8       4 C4        119.54   119.98     0.19
           3 C3       7 C7       8 C8      10 H10       119.54   119.33   179.88
           9 H9       7 C7       8 C8      10 H10       119.69   119.33    -0.26
           4 C4       8 C8       7 C7       9 H9        119.98   119.69  -179.95
--
--- Stop Module: slapaf at Thu Jul  4 02:01:41 2024 /rc=_RC_CONTINUE_LOOP_ ---
*** files: ts.geo.molden ts.structure ts.Opt.xyz xmldump
    saved to directory /home/kenya/molcas_test/0625_re

>>> END DO

--- Start Module: seward at Thu Jul  4 02:01:41 2024 ---
--- Stop Module: seward at Thu Jul  4 02:01:45 2024 /rc=_RC_ALL_IS_WELL_ ---
*** files: xmldump
    saved to directory /home/kenya/molcas_test/0625_re
--- Module seward spent 4 seconds ---

--- Start Module: rasscf at Thu Jul  4 02:01:45 2024 ---
--- Stop Module: rasscf at Thu Jul  4 02:06:32 2024 /rc=_RC_ALL_IS_WELL_ ---
[...]


                        19        20        21        22        23        24

            Freq.    1009.17   1052.91   1147.39   1253.84   1507.70   1538.14                                               


                        25        26        27        28        29        30

            Freq.    1665.41   1832.97   3383.24   3401.76   3510.07   3516.62                                               


 Masses:
 =======
  12  12  12  14   1   1  12  12   1   1


 Frequencies:
 ============
                         1         2         3         4         5         6

            Freq.    i780.21     i4.39      0.04      0.06      0.08     28.54                                               


                         7         8         9        10        11        12

            Freq.      40.00    352.20    409.43    494.57    548.49    582.80                                               


                        13        14        15        16        17        18

            Freq.     620.70    678.84    733.06    818.99    897.19    972.80                                               


                        19        20        21        22        23        24

            Freq.    1005.32   1051.99   1143.71   1253.69   1506.99   1536.93                                               


                        25        26        27        28        29        30

            Freq.    1644.50   1818.52   3383.24   3401.76   3509.93   3516.58                                               


 Masses:
 =======
  12  12  12  12   2   1  12  12   1   1


 Frequencies:
 ============
                         1         2         3         4         5         6

            Freq.    i778.55     i4.27      0.04      0.06      0.08     28.32                                               


                         7         8         9        10        11        12

            Freq.      40.51    333.73    418.39    460.70    490.24    586.12                                               


                        13        14        15        16        17        18

            Freq.     630.01    639.05    702.83    732.54    839.77    972.61                                               


                        19        20        21        22        23        24

            Freq.    1002.85   1013.08   1130.25   1252.55   1507.24   1539.21                                               


                        25        26        27        28        29        30

            Freq.    1657.36   1832.77   2621.74   3383.24   3401.77   3514.78                                               


 Masses:
 =======
  12  12  12  12   3   1  12  12   1   1


 Frequencies:
 ============
                         1         2         3         4         5         6

            Freq.    i777.24     i4.17      0.04      0.06      0.08     27.84                                               


                         7         8         9        10        11        12

            Freq.      40.20    309.93    417.74    426.29    479.91    582.70                                               


                        13        14        15        16        17        18

            Freq.     585.43    633.47    649.03    732.23    838.79    972.56                                               


                        19        20        21        22        23        24

            Freq.     993.16   1010.75   1123.82   1250.91   1505.00   1538.34                                               


                        25        26        27        28        29        30

            Freq.    1623.29   1808.05   2287.41   3383.24   3401.77   3514.78                                               


 Masses:
 =======
  12  12  12  12   1   2  12  12   1   1


 Frequencies:
 ============
                         1         2         3         4         5         6

            Freq.    i778.52     i4.27      0.04      0.06      0.08     28.32                                               


                         7         8         9        10        11        12

            Freq.      40.52    332.99    418.34    460.53    490.20    589.82                                               


                        13        14        15        16        17        18

            Freq.     629.41    636.92    702.07    732.26    839.96    972.60                                               


                        19        20        21        22        23        24

            Freq.     993.60   1026.14   1129.41   1253.10   1507.82   1539.56                                               


                        25        26        27        28        29        30

            Freq.    1650.33   1837.07   2623.80   3383.24   3401.77   3512.11                                               


 Masses:
 =======
  12  12  12  12   1   3  12  12   1   1


 Frequencies:
 ============
                         1         2         3         4         5         6

            Freq.    i777.19     i4.17      0.04      0.06      0.08     27.83                                               


                         7         8         9        10        11        12

            Freq.      40.22    308.71    417.53    427.07    479.81    581.14                                               


                        13        14        15        16        17        18

            Freq.     589.71    630.62    649.34    731.92    839.06    972.55                                               


                        19        20        21        22        23        24

            Freq.     983.63   1023.21   1125.33   1252.38   1506.98   1539.27                                               


                        25        26        27        28        29        30

            Freq.    1607.05   1817.90   2288.60   3383.24   3401.77   3512.11                                               


 Masses:
 =======
  12  12  12  12   1   1  13  12   1   1


 Frequencies:
 ============
                         1         2         3         4         5         6

            Freq.    i780.24     i4.35      0.04      0.06      0.08     28.68                                               


                         7         8         9        10        11        12

            Freq.      40.77    351.91    418.13    495.49    547.47    585.32                                               


                        13        14        15        16        17        18

            Freq.     635.86    679.08    733.17    827.94    898.45    969.47                                               


                        19        20        21        22        23        24

            Freq.     998.39   1053.07   1149.64   1249.97   1487.42   1528.84                                               


                        25        26        27        28        29        30

            Freq.    1684.75   1853.15   3376.73   3397.57   3510.22   3516.67                                               


 Masses:
 =======
  12  12  12  12   1   1  14  12   1   1


 Frequencies:
 ============
                         1         2         3         4         5         6

            Freq.    i780.16     i4.32      0.04      0.06      0.08     28.53                                               


                         7         8         9        10        11        12

            Freq.      40.66    350.50    417.77    493.35    545.99    581.08                                               


                        13        14        15        16        17        18

            Freq.     633.56    679.06    731.41    821.86    898.39    966.72                                               


                        19        20        21        22        23        24

            Freq.     985.24   1052.22   1147.53   1245.78   1466.33   1523.47                                               


                        25        26        27        28        29        30

            Freq.    1684.50   1852.32   3369.47   3395.75   3510.22   3516.67                                               


 Masses:
 =======
  12  12  12  12   1   1  12  13   1   1


 Frequencies:
 ============
                         1         2         3         4         5         6

            Freq.    i780.24     i4.35      0.04      0.06      0.08     28.68                                               


                         7         8         9        10        11        12

            Freq.      40.77    351.88    418.25    495.37    548.33    584.72                                               


                        13        14        15        16        17        18

            Freq.     636.32    679.08    732.43    826.86    898.49    969.63                                               


                        19        20        21        22        23        24

            Freq.    1009.70   1045.31   1148.43   1249.05   1502.25   1512.87                                               


                        25        26        27        28        29        30

            Freq.    1684.45   1852.11   3376.58   3397.70   3510.22   3516.67                                               


 Masses:
 =======
  12  12  12  12   1   1  12  14   1   1


 Frequencies:
 ============
                         1         2         3         4         5         6

            Freq.    i780.16     i4.32      0.04      0.06      0.08     28.53                                               


                         7         8         9        10        11        12

            Freq.      40.66    350.44    418.00    493.13    547.79    579.72                                               


                        13        14        15        16        17        18

            Freq.     634.48    679.06    730.07    819.81    898.47    967.03                                               


                        19        20        21        22        23        24

            Freq.    1005.03   1038.67   1145.78   1243.83   1484.09   1503.42                                               


                        25        26        27        28        29        30

            Freq.    1683.97   1850.52   3369.26   3395.94   3510.22   3516.67                                               


 Masses:
 =======
  12  12  12  12   1   1  12  12   2   1


 Frequencies:
 ============
                         1         2         3         4         5         6

            Freq.    i780.30     i4.28      0.04      0.06      0.08     28.35                                               


                         7         8         9        10        11        12

            Freq.      40.54    347.76    397.05    495.08    544.04    574.11                                               


                        13        14        15        16        17        18

            Freq.     633.90    653.89    679.41    825.99    894.52    896.90                                               


                        19        20        21        22        23        24

            Freq.     918.44   1000.02   1080.56   1185.88   1422.96   1532.10                                               


                        25        26        27        28        29        30

            Freq.    1683.81   1853.65   2504.21   3392.47   3510.22   3516.67                                               


 Masses:
 =======
  12  12  12  12   1   1  12  12   3   1


 Frequencies:
 ============
                         1         2         3         4         5         6

            Freq.    i780.29     i4.18      0.04      0.06      0.08     27.90                                               


                         7         8         9        10        11        12

            Freq.      40.25    337.33    381.47    492.31    533.56    562.01                                               


                        13        14        15        16        17        18

            Freq.     627.25    630.33    679.29    778.40    828.10    879.53                                               


                        19        20        21        22        23        24

            Freq.     898.86    983.64   1074.28   1180.57   1411.78   1523.18                                               


                        25        26        27        28        29        30

            Freq.    1682.98   1852.52   2141.71   3392.44   3510.22   3516.67                                               


 Masses:
 =======
  12  12  12  12   1   1  12  12   1   2


 Frequencies:
 ============
                         1         2         3         4         5         6

            Freq.    i780.30     i4.28      0.04      0.06      0.08     28.35                                               


                         7         8         9        10        11        12

            Freq.      40.54    346.98    397.05    495.06    538.44    573.58                                               


                        13        14        15        16        17        18

            Freq.     634.02    659.02    679.53    822.27    896.94    899.27                                               


                        19        20        21        22        23        24

            Freq.     930.00   1016.18   1072.92   1164.42   1436.24   1519.29                                               


                        25        26        27        28        29        30

            Freq.    1684.03   1853.36   2504.58   3392.74   3510.22   3516.67                                               


 Masses:
 =======
  12  12  12  12   1   1  12  12   1   3


 Frequencies:
 ============
                         1         2         3         4         5         6

            Freq.    i780.29     i4.18      0.04      0.06      0.08     27.91                                               


                         7         8         9        10        11        12

            Freq.      40.24    335.35    381.79    492.32    523.62    565.10                                               


                        13        14        15        16        17        18

            Freq.     627.24    637.83    679.35    778.91    835.57    884.91                                               


                        19        20        21        22        23        24

            Freq.     899.36   1002.56   1061.65   1158.69   1424.55   1510.89                                               


                        25        26        27        28        29        30

            Freq.    1682.85   1851.64   2143.41   3392.71   3510.22   3516.67                                               



  Full substitutions:
  -----------------------

 Masses:
 =======
  12  12  12  12   2   2  12  12   2   2


 Frequencies:
 ============
                         1         2         3         4         5         6

            Freq.    i776.71     i3.99      0.04      0.06      0.08     26.95                                               


                         7         8         9        10        11        12

            Freq.      39.45    313.50    376.15    419.16    479.39    513.11                                               


                        13        14        15        16        17        18

            Freq.     580.07    605.66    606.55    666.84    744.73    764.72                                               


                        19        20        21        22        23        24

            Freq.     870.92    913.84    943.57    999.34   1314.60   1490.60                                               


                        25        26        27        28        29        30

            Freq.    1624.52   1808.38   2492.80   2515.96   2620.79   2624.63                                               


 Masses:
 =======
  12  12  12  12   3   3  12  12   3   3


 Frequencies:
 ============
                         1         2         3         4         5         6

            Freq.    i774.02     i3.68      0.04      0.06      0.08     25.39                                               


                         7         8         9        10        11        12

            Freq.      38.15    279.47    340.29    365.82    455.10    460.97                                               


                        13        14        15        16        17        18

            Freq.     517.97    549.21    569.58    621.40    650.33    705.45                                               


                        19        20        21        22        23        24

            Freq.     767.63    819.53    845.03    962.05   1260.85   1468.68                                               


                        25        26        27        28        29        30

            Freq.    1567.03   1739.62   2127.19   2156.05   2276.24   2298.46                                               


 Masses:
 =======
  13  13  13  13   1   1  13  13   1   1


 Frequencies:
 ============
                         1         2         3         4         5         6

            Freq.    i749.94     i4.25      0.04      0.06      0.08     27.86                                               


                         7         8         9        10        11        12

            Freq.      39.38    342.42    405.23    479.38    544.62    570.32                                               


                        13        14        15        16        17        18

            Freq.     614.11    672.56    727.20    804.56    895.53    966.23                                               


                        19        20        21        22        23        24

            Freq.     977.67   1036.77   1129.71   1242.29   1480.21   1498.27                                               


                        25        26        27        28        29        30

            Freq.    1624.95   1783.96   3372.99   3390.57   3497.05   3503.71                                               


 Masses:
 =======
  14  14  14  14   1   1  14  14   1   1


 Frequencies:
 ============
                         1         2         3         4         5         6

            Freq.    i722.95     i4.12      0.04      0.06      0.08     26.98                                               


                         7         8         9        10        11        12

            Freq.      38.04    332.35    393.09    463.05    540.41    552.50                                               


                        13        14        15        16        17        18

            Freq.     592.59    667.33    720.48    777.81    892.24    945.44                                               


                        19        20        21        22        23        24

            Freq.     960.79   1018.83   1111.83   1228.36   1446.86   1475.18                                               


                        25        26        27        28        29        30

            Freq.    1571.69   1721.29   3364.31   3381.09   3486.01   3492.80                                               


--


      The response parameters are written to the file RESP.
--- Stop Module: mclr at Thu Jul  4 05:53:14 2024 /rc=_RC_ALL_IS_WELL_ ---
*** files: ts.freq.molden ts.UnSym xmldump
    saved to directory /home/kenya/molcas_test/0625_re
--- Module mclr spent 3 hours 11 minutes 15 seconds ---

.##################.
.# Happy landing! #.
.##################.

    Timing: Wall=14797.39 User=13961.15 System=32.91
