[Molden Format]
[N_Atoms]
                   10
[Atoms] (AU)
C1          1      6          -1.79700532      2.27817298     -0.00004316
C2          2      6           1.79345476      2.26629665      0.00032306
C3          3      6          -2.65179861      0.00355095      0.00016032
C4          4      6           2.62718017     -0.01756968     -0.00021981
H5          5      1           2.48629259      4.15719183      0.00058496
H6          6      1          -2.46805074      4.17653104      0.00036280
C7          7      6          -1.30433556     -2.35838340     -0.00036636
C8          8      6           1.30748911     -2.34370553     -0.00048392
H9          9      1          -2.29501492     -4.12867655     -0.00006286
H10        10      1           2.30178848     -4.11230968     -0.00025510
[Charge] (Mulliken)
 -0.26837267833968870     
 -0.26683718799695466     
   3.7353614094636001E-002
   3.6094213335461589E-002
  0.23789715809432088     
  0.23855809785971360     
 -0.21707323480754681     
 -0.22603519358659163     
  0.21257237745759672     
  0.21584283388339887     
[GTO] (AU)
   1
   s   6
  3.047524880E+03  1.834737132E-03
  4.573695180E+02  1.403732281E-02
  1.039486850E+02  6.884262227E-02
  2.921015530E+01  2.321844432E-01
  9.286662960E+00  4.679413484E-01
  3.163926960E+00  3.623119853E-01
   s   3
  7.868272350E+00 -1.193324198E-01
  1.881288540E+00 -1.608541517E-01
  5.442492580E-01  1.143456438E+00
   s   1
  1.687144782E-01  1.000000000E+00
   p   3
  7.868272350E+00  6.899906659E-02
  1.881288540E+00  3.164239610E-01
  5.442492580E-01  7.443082909E-01
   p   1
  1.687144782E-01  1.000000000E+00
   d   1
  8.000000000E-01  1.000000000E+00
 
   2
   s   6
  3.047524880E+03  1.834737132E-03
  4.573695180E+02  1.403732281E-02
  1.039486850E+02  6.884262227E-02
  2.921015530E+01  2.321844432E-01
  9.286662960E+00  4.679413484E-01
  3.163926960E+00  3.623119853E-01
   s   3
  7.868272350E+00 -1.193324198E-01
  1.881288540E+00 -1.608541517E-01
  5.442492580E-01  1.143456438E+00
   s   1
  1.687144782E-01  1.000000000E+00
   p   3
  7.868272350E+00  6.899906659E-02
  1.881288540E+00  3.164239610E-01
  5.442492580E-01  7.443082909E-01
   p   1
  1.687144782E-01  1.000000000E+00
   d   1
  8.000000000E-01  1.000000000E+00
 
   3
   s   6
  3.047524880E+03  1.834737132E-03
  4.573695180E+02  1.403732281E-02
  1.039486850E+02  6.884262227E-02
  2.921015530E+01  2.321844432E-01
  9.286662960E+00  4.679413484E-01
  3.163926960E+00  3.623119853E-01
   s   3
  7.868272350E+00 -1.193324198E-01
  1.881288540E+00 -1.608541517E-01
  5.442492580E-01  1.143456438E+00
   s   1
  1.687144782E-01  1.000000000E+00
   p   3
  7.868272350E+00  6.899906659E-02
  1.881288540E+00  3.164239610E-01
  5.442492580E-01  7.443082909E-01
   p   1
  1.687144782E-01  1.000000000E+00
   d   1
  8.000000000E-01  1.000000000E+00
 
   4
   s   6
  3.047524880E+03  1.834737132E-03
  4.573695180E+02  1.403732281E-02
  1.039486850E+02  6.884262227E-02
  2.921015530E+01  2.321844432E-01
  9.286662960E+00  4.679413484E-01
  3.163926960E+00  3.623119853E-01
   s   3
  7.868272350E+00 -1.193324198E-01
  1.881288540E+00 -1.608541517E-01
  5.442492580E-01  1.143456438E+00
   s   1
  1.687144782E-01  1.000000000E+00
   p   3
  7.868272350E+00  6.899906659E-02
  1.881288540E+00  3.164239610E-01
  5.442492580E-01  7.443082909E-01
   p   1
  1.687144782E-01  1.000000000E+00
   d   1
  8.000000000E-01  1.000000000E+00
 
   5
   s   3
  1.873113696E+01  3.349460434E-02
  2.825394365E+00  2.347269535E-01
  6.401216923E-01  8.137573261E-01
   s   1
  1.612777588E-01  1.000000000E+00
 
   6
   s   3
  1.873113696E+01  3.349460434E-02
  2.825394365E+00  2.347269535E-01
  6.401216923E-01  8.137573261E-01
   s   1
  1.612777588E-01  1.000000000E+00
 
   7
   s   6
  3.047524880E+03  1.834737132E-03
  4.573695180E+02  1.403732281E-02
  1.039486850E+02  6.884262227E-02
  2.921015530E+01  2.321844432E-01
  9.286662960E+00  4.679413484E-01
  3.163926960E+00  3.623119853E-01
   s   3
  7.868272350E+00 -1.193324198E-01
  1.881288540E+00 -1.608541517E-01
  5.442492580E-01  1.143456438E+00
   s   1
  1.687144782E-01  1.000000000E+00
   p   3
  7.868272350E+00  6.899906659E-02
  1.881288540E+00  3.164239610E-01
  5.442492580E-01  7.443082909E-01
   p   1
  1.687144782E-01  1.000000000E+00
   d   1
  8.000000000E-01  1.000000000E+00
 
   8
   s   6
  3.047524880E+03  1.834737132E-03
  4.573695180E+02  1.403732281E-02
  1.039486850E+02  6.884262227E-02
  2.921015530E+01  2.321844432E-01
  9.286662960E+00  4.679413484E-01
  3.163926960E+00  3.623119853E-01
   s   3
  7.868272350E+00 -1.193324198E-01
  1.881288540E+00 -1.608541517E-01
  5.442492580E-01  1.143456438E+00
   s   1
  1.687144782E-01  1.000000000E+00
   p   3
  7.868272350E+00  6.899906659E-02
  1.881288540E+00  3.164239610E-01
  5.442492580E-01  7.443082909E-01
   p   1
  1.687144782E-01  1.000000000E+00
   d   1
  8.000000000E-01  1.000000000E+00
 
   9
   s   3
  1.873113696E+01  3.349460434E-02
  2.825394365E+00  2.347269535E-01
  6.401216923E-01  8.137573261E-01
   s   1
  1.612777588E-01  1.000000000E+00
 
  10
   s   3
  1.873113696E+01  3.349460434E-02
  2.825394365E+00  2.347269535E-01
  6.401216923E-01  8.137573261E-01
   s   1
  1.612777588E-01  1.000000000E+00
 
[MO]
Sym=     1a  
Ene=   -11.2460
Spin= Alpha
Occup=    2.00000
   1        -0.00120420
   2        -0.00012711
   3         0.00110327
   4        -0.00003070
   5         0.00002814
   6         0.00000001
   7         0.00024397
   8        -0.00078002
   9        -0.00000005
  10        -0.00002008
  11         0.00000667
  12        -0.00005423
  13         0.00001922
  14         0.00000002
  15        -0.00000001
  16         0.00308108
  17         0.00003340
  18        -0.00112759
  19         0.00003163
  20        -0.00000227
  21        -0.00000000
  22         0.00030902
  23         0.00061968
  24         0.00000020
  25         0.00002950
  26         0.00013046
  27        -0.00004115
  28        -0.00004613
  29        -0.00000004
  30         0.00000003
  31         0.00251600
  32         0.00006044
  33        -0.00154037
  34        -0.00000372
  35        -0.00000161
  36         0.00000003
  37        -0.00060857
  38        -0.00029025
  39         0.00000025
  40         0.00003208
  41        -0.00003362
  42        -0.00001588
  43        -0.00001728
  44         0.00000003
  45         0.00000001
  46         0.02310034
  47         0.00050013
  48         0.00532442
  49         0.00013719
  50         0.00011334
  51         0.00000007
  52        -0.00159779
  53        -0.00114917
  54         0.00000001
  55        -0.00035467
  56        -0.00063645
  57        -0.00021792
  58        -0.00014105
  59        -0.00000005
  60        -0.00000008
  61        -0.00004154
  62        -0.00008754
  63         0.00003223
  64         0.00026512
  65         0.15139931
  66         0.00397464
  67         0.00368267
  68        -0.00020004
  69         0.00002762
  70         0.00000019
  71         0.00202713
  72         0.00119755
  73         0.00000004
  74        -0.00069996
  75        -0.00055198
  76        -0.00049091
  77         0.00004064
  78         0.00000005
  79         0.00000001
  80         0.98370684
  81         0.02745687
  82        -0.01355542
  83         0.00004892
  84         0.00030991
  85         0.00000017
  86         0.00095611
  87        -0.00210429
  88        -0.00000035
  89        -0.00168977
  90        -0.00175780
  91        -0.00233954
  92         0.00009691
  93         0.00000002
  94        -0.00000001
  95        -0.00002506
  96         0.00059653
  97        -0.00021794
  98         0.00144912
Sym=     2a  
Ene=   -11.2420
Spin= Alpha
Occup=    2.00000
   1        -0.03835261
   2        -0.00110278
   3         0.00193621
   4         0.00010896
   5         0.00009000
   6        -0.00000009
   7         0.00047166
   8        -0.00094439
   9         0.00000012
  10         0.00004020
  11        -0.00007338
  12         0.00010857
  13        -0.00006043
  14         0.00000007
  15        -0.00000001
  16         0.00573034
  17         0.00023553
  18        -0.00170477
  19        -0.00001888
  20        -0.00002032
  21         0.00000001
  22         0.00041870
  23         0.00106036
  24         0.00000027
  25         0.00002873
  26         0.00003028
  27         0.00004278
  28         0.00000203
  29        -0.00000002
  30        -0.00000001
  31        -0.02132849
  32        -0.00017817
  33        -0.00591030
  34         0.00028209
  35        -0.00053099
  36        -0.00000025
  37        -0.00184970
  38         0.00088340
  39         0.00000034
  40         0.00038885
  41         0.00067814
  42         0.00021706
  43        -0.00019556
  44        -0.00000006
  45         0.00000014
  46         0.00524972
  47         0.00014875
  48         0.00339008
  49         0.00007018
  50         0.00000271
  51        -0.00000008
  52        -0.00114533
  53        -0.00002751
  54         0.00000010
  55        -0.00015505
  56        -0.00017297
  57        -0.00005203
  58        -0.00007084
  59        -0.00000001
  60        -0.00000001
  61        -0.00004941
  62        -0.00031389
  63         0.00008882
  64         0.00016815
  65        -0.98321745
  66        -0.02734526
  67         0.01543097
  68        -0.00033735
  69         0.00015934
  70        -0.00000042
  71         0.00157867
  72         0.00267787
  73         0.00000040
  74         0.00158137
  75         0.00175110
  76         0.00230413
  77         0.00004694
  78         0.00000010
  79         0.00000003
  80         0.15177584
  81         0.00448013
  82        -0.00821730
  83        -0.00009508
  84         0.00008759
  85        -0.00000030
  86         0.00252059
  87        -0.00189293
  88        -0.00000058
  89         0.00020012
  90         0.00002090
  91        -0.00022323
  92         0.00005485
  93         0.00000004
  94        -0.00000001
  95         0.00017250
  96        -0.00142215
  97        -0.00001631
  98        -0.00012062
Sym=     3a  
Ene=   -11.2410
Spin= Alpha
Occup=    2.00000
   1         0.98098996
   2         0.02677121
   3        -0.01245570
   4        -0.00075795
   5         0.00012669
   6         0.00000069
   7        -0.00064284
   8         0.00159988
   9        -0.00000044
  10        -0.00256205
  11        -0.00120798
  12        -0.00231849
  13         0.00008983
  14        -0.00000007
  15         0.00000010
  16         0.15697330
  17         0.00398041
  18         0.00104285
  19         0.00043794
  20         0.00001058
  21         0.00000003
  22        -0.00095162
  23        -0.00073360
  24        -0.00000002
  25        -0.00057840
  26        -0.00025762
  27        -0.00054021
  28        -0.00001091
  29        -0.00000004
  30         0.00000007
  31         0.05381690
  32         0.00128068
  33         0.00537320
  34        -0.00042406
  35        -0.00044808
  36         0.00000036
  37         0.00081734
  38         0.00215879
  39         0.00000027
  40        -0.00040486
  41        -0.00015688
  42        -0.00029795
  43        -0.00005203
  44         0.00000006
  45         0.00000007
  46         0.01200850
  47         0.00040360
  48        -0.00092744
  49         0.00018565
  50        -0.00001971
  51         0.00000003
  52         0.00059082
  53         0.00019249
  54        -0.00000017
  55        -0.00007918
  56        -0.00002535
  57        -0.00007093
  58         0.00002550
  59         0.00000004
  60         0.00000001
  61        -0.00007480
  62         0.00062112
  63        -0.00039949
  64         0.00190990
  65        -0.03763674
  66        -0.00097386
  67        -0.00000998
  68        -0.00011257
  69         0.00015157
  70         0.00000014
  71        -0.00049770
  72        -0.00003002
  73        -0.00000003
  74         0.00001857
  75         0.00011744
  76         0.00005739
  77         0.00001022
  78        -0.00000001
  79        -0.00000001
  80         0.00603696
  81         0.00008357
  82         0.00097369
  83         0.00002447
  84        -0.00001402
  85        -0.00000001
  86        -0.00028744
  87         0.00054309
  88         0.00000004
  89         0.00001292
  90        -0.00001775
  91        -0.00006822
  92         0.00002668
  93        -0.00000000
  94         0.00000001
  95        -0.00009315
  96        -0.00012357
  97         0.00001572
  98         0.00019249
Sym=     4a  
Ene=   -11.2410
Spin= Alpha
Occup=    2.00000
   1        -0.15703395
   2        -0.00461780
   3         0.00516640
   4        -0.00022060
   5        -0.00000651
   6        -0.00000017
   7         0.00120766
   8        -0.00128600
   9         0.00000002
  10         0.00023014
  11         0.00012713
  12         0.00019190
  13        -0.00001676
  14        -0.00000000
  15        -0.00000003
  16         0.98091996
  17         0.02688726
  18        -0.01336564
  19         0.00071792
  20         0.00007228
  21        -0.00000043
  22         0.00103878
  23         0.00186753
  24         0.00000062
  25        -0.00251130
  26        -0.00119082
  27        -0.00226430
  28        -0.00007890
  29        -0.00000008
  30         0.00000022
  31        -0.00721644
  32         0.00000837
  33        -0.00268495
  34        -0.00002270
  35         0.00004044
  36        -0.00000015
  37        -0.00088032
  38        -0.00051510
  39         0.00000025
  40         0.00005881
  41         0.00003823
  42         0.00002606
  43        -0.00001863
  44         0.00000005
  45        -0.00000003
  46         0.06650678
  47         0.00143238
  48         0.00580914
  49         0.00046968
  50        -0.00021126
  51        -0.00000030
  52        -0.00100454
  53         0.00223996
  54         0.00000029
  55        -0.00044604
  56        -0.00020048
  57        -0.00031993
  58         0.00002941
  59         0.00000001
  60        -0.00000000
  61        -0.00040886
  62         0.00178873
  63         0.00006321
  64         0.00004167
  65         0.01127848
  66         0.00027287
  67         0.00132087
  68         0.00000668
  69         0.00001682
  70        -0.00000001
  71         0.00053718
  72         0.00065693
  73         0.00000003
  74         0.00000681
  75        -0.00005273
  76        -0.00007914
  77        -0.00004190
  78         0.00000000
  79         0.00000002
  80        -0.00657944
  81        -0.00022649
  82        -0.00088535
  83        -0.00003738
  84        -0.00006427
  85        -0.00000009
  86         0.00061808
  87        -0.00033645
  88         0.00000002
  89        -0.00004484
  90         0.00005865
  91         0.00000329
  92        -0.00003879
  93        -0.00000001
  94         0.00000002
  95         0.00001751
  96         0.00018850
  97        -0.00007610
  98        -0.00007819
Sym=     5a  
Ene=   -11.2250
Spin= Alpha
Occup=    2.00000
   1         0.00037005
   2        -0.00018253
   3         0.00210370
   4        -0.00036113
   5        -0.00004666
   6        -0.00000005
   7         0.00027575
   8        -0.00097311
   9         0.00000014
  10        -0.00001073
  11        -0.00000760
  12        -0.00002238
  13         0.00001385
  14         0.00000003
  15        -0.00000004
  16         0.06883785
  17         0.00223019
  18        -0.00888862
  19         0.00086021
  20        -0.00025317
  21        -0.00000025
  22         0.00093130
  23         0.00451516
  24         0.00000086
  25         0.00019441
  26         0.00008182
  27         0.00002192
  28        -0.00016139
  29        -0.00000010
  30         0.00000002
  31         0.01435246
  32         0.00073333
  33        -0.00275753
  34         0.00011251
  35         0.00004554
  36        -0.00000006
  37        -0.00092141
  38        -0.00015811
  39         0.00000024
  40        -0.00000558
  41         0.00002833
  42         0.00006773
  43        -0.00001660
  44         0.00000004
  45        -0.00000001
  46        -0.99316617
  47        -0.02753878
  48         0.01811195
  49         0.00178534
  50         0.00005129
  51        -0.00000034
  52        -0.00413396
  53         0.00103635
  54         0.00000055
  55         0.00234289
  56         0.00105979
  57         0.00231278
  58        -0.00005375
  59        -0.00000001
  60        -0.00000025
  61        -0.00001181
  62        -0.00081373
  63         0.00009835
  64         0.00021348
  65        -0.00174000
  66         0.00010104
  67         0.00317464
  68         0.00009040
  69         0.00013545
  70        -0.00000004
  71         0.00082655
  72         0.00108405
  73         0.00000009
  74        -0.00015749
  75        -0.00006114
  76         0.00001250
  77         0.00000231
  78         0.00000001
  79        -0.00000000
  80         0.02388466
  81         0.00085953
  82        -0.00723614
  83         0.00005593
  84         0.00028261
  85        -0.00000011
  86         0.00088471
  87        -0.00343096
  88        -0.00000045
  89         0.00049460
  90         0.00047734
  91         0.00016983
  92         0.00034759
  93         0.00000002
  94         0.00000000
  95        -0.00001550
  96         0.00002953
  97        -0.00008075
  98        -0.00076551
Sym=     6a  
Ene=   -11.2210
Spin= Alpha
Occup=    2.00000
   1        -0.05639997
   2        -0.00174184
   3         0.00889444
   4         0.00080649
   5         0.00008725
   6        -0.00000033
   7         0.00081777
   8        -0.00455226
   9        -0.00000028
  10        -0.00021305
  11        -0.00011323
  12        -0.00005775
  13        -0.00013756
  14         0.00000013
  15         0.00000001
  16        -0.00235041
  17         0.00012619
  18        -0.00179129
  19        -0.00044098
  20         0.00007070
  21        -0.00000009
  22         0.00020023
  23         0.00085004
  24         0.00000040
  25         0.00000560
  26         0.00000489
  27         0.00001714
  28         0.00002174
  29        -0.00000004
  30        -0.00000005
  31         0.99429953
  32         0.02703270
  33        -0.01820149
  34         0.00157251
  35         0.00085573
  36        -0.00000065
  37        -0.00409961
  38        -0.00090294
  39         0.00000125
  40        -0.00238025
  41        -0.00118202
  42        -0.00232314
  43         0.00004072
  44         0.00000004
  45         0.00000003
  46         0.01424346
  47         0.00008753
  48         0.00230553
  49        -0.00000623
  50        -0.00011542
  51        -0.00000007
  52        -0.00084471
  53         0.00010955
  54         0.00000007
  55        -0.00005827
  56        -0.00006286
  57        -0.00013644
  58        -0.00001026
  59        -0.00000003
  60         0.00000001
  61        -0.00009392
  62        -0.00018264
  63        -0.00004378
  64         0.00073343
  65        -0.01950783
  66        -0.00112004
  67         0.00653142
  68         0.00050388
  69        -0.00097646
  70        -0.00000028
  71         0.00106358
  72         0.00303633
  73        -0.00000004
  74        -0.00047086
  75        -0.00051821
  76        -0.00016488
  77         0.00039630
  78         0.00000017
  79        -0.00000013
  80         0.00004303
  81        -0.00002582
  82        -0.00291457
  83        -0.00002964
  84        -0.00008641
  85        -0.00000009
  86         0.00075785
  87        -0.00094286
  88         0.00000007
  89         0.00012816
  90         0.00004784
  91        -0.00001728
  92         0.00002430
  93        -0.00000003
  94         0.00000003
  95         0.00018347
  96         0.00092561
  97        -0.00004642
  98        -0.00011899
Sym=     7a  
Ene=    -1.0908
Spin= Alpha
Occup=    2.00000
   1        -0.05428575
   2         0.10135361
   3         0.07963528
   4        -0.02141678
   5        -0.04431561
   6         0.00001033
   7        -0.01359465
   8        -0.01273739
   9         0.00000492
  10         0.00166043
  11         0.00578031
  12        -0.00492639
  13         0.00133423
  14        -0.00000050
  15        -0.00000050
  16        -0.09051903
  17         0.17106073
  18         0.11588242
  19         0.03149549
  20        -0.08613426
  21        -0.00002113
  22         0.01036854
  23        -0.00208832
  24        -0.00000323
  25        -0.00280448
  26         0.01338208
  27        -0.00746282
  28        -0.00174739
  29        -0.00000020
  30         0.00000493
  31        -0.03966769
  32         0.07311419
  33         0.02426517
  34         0.01959895
  35         0.06913795
  36         0.00000201
  37        -0.00612505
  38         0.01131082
  39         0.00000254
  40        -0.00055502
  41         0.00482463
  42        -0.00360597
  43         0.00090129
  44        -0.00000044
  45        -0.00000047
  46        -0.12863392
  47         0.24563605
  48         0.15922210
  49        -0.08713243
  50         0.00589126
  51         0.00001288
  52        -0.02147607
  53        -0.00371188
  54         0.00000202
  55        -0.00235910
  56         0.01519308
  57        -0.01041719
  58         0.00413213
  59        -0.00000055
  60         0.00000510
  61         0.03871839
  62         0.00474337
  63         0.02421522
  64         0.00396076
  65        -0.06885674
  66         0.12997882
  67         0.07539398
  68         0.10677667
  69        -0.02600522
  70         0.00000080
  71         0.02609778
  72        -0.01654278
  73         0.00000141
  74         0.01118519
  75        -0.00000260
  76        -0.00597851
  77         0.00415858
  78        -0.00000050
  79        -0.00000050
  80        -0.13255034
  81         0.25646698
  82         0.17420957
  83        -0.02851509
  84         0.05958851
  85         0.00001951
  86        -0.00416980
  87         0.00459282
  88         0.00000577
  89         0.00822431
  90         0.01126778
  91        -0.01111122
  92         0.00375027
  93         0.00000056
  94         0.00000105
  95         0.03673063
  96         0.01189595
  97         0.05970916
  98         0.00340693
Sym=     8a  
Ene=    -0.9844
Spin= Alpha
Occup=    2.00000
   1        -0.15296030
   2         0.29156398
   3         0.23688709
   4        -0.08368355
   5        -0.09308944
   6         0.00003359
   7        -0.02987237
   8         0.00225904
   9         0.00001827
  10        -0.00325268
  11         0.02105824
  12        -0.01208103
  13         0.00425359
  14        -0.00000191
  15         0.00000043
  16        -0.04563240
  17         0.08245492
  18         0.08234268
  19         0.01582942
  20        -0.00026382
  21        -0.00000252
  22         0.01358228
  23        -0.01256288
  24        -0.00000291
  25         0.00458234
  26         0.00442469
  27        -0.00453078
  28        -0.00007490
  29        -0.00000012
  30         0.00000227
  31        -0.10557324
  32         0.20149258
  33         0.14315522
  34         0.03326610
  35         0.18789229
  36         0.00000044
  37         0.00646883
  38         0.01623512
  39         0.00000036
  40        -0.00682333
  41         0.01053490
  42        -0.00675699
  43         0.00978572
  44         0.00000011
  45        -0.00000164
  46         0.00420898
  47        -0.00722368
  48        -0.01814026
  49         0.02644528
  50         0.09183880
  51         0.00001241
  52         0.01715286
  53         0.00135049
  54        -0.00000121
  55        -0.00223557
  56        -0.00218883
  57         0.00146720
  58        -0.00648143
  59        -0.00000054
  60         0.00000028
  61         0.03807955
  62         0.01849200
  63         0.09296732
  64         0.01811985
  65         0.05870839
  66        -0.11416753
  67        -0.10528417
  68        -0.06813564
  69         0.03816552
  70        -0.00000178
  71         0.00209441
  72         0.00535041
  73        -0.00000515
  74        -0.00994251
  75         0.00437896
  76         0.00406869
  77        -0.00441456
  78         0.00000077
  79         0.00000178
  80         0.09353515
  81        -0.18097465
  82        -0.15169353
  83         0.02915256
  84         0.01001952
  85        -0.00001308
  86        -0.00074010
  87         0.01026385
  88        -0.00000532
  89        -0.00764160
  90        -0.00476208
  91         0.00736089
  92         0.00169726
  93        -0.00000027
  94         0.00000070
  95        -0.03964263
  96        -0.00536027
  97        -0.06516453
  98        -0.01656884
Sym=     9a  
Ene=    -0.9616
Spin= Alpha
Occup=    2.00000
   1         0.07744709
   2        -0.15337657
   3        -0.11384371
   4         0.06251465
   5         0.07518560
   6        -0.00001909
   7         0.01698896
   8        -0.01192778
   9        -0.00001172
  10         0.00684976
  11        -0.01146650
  12         0.00515990
  13        -0.00398909
  14         0.00000154
  15         0.00000041
  16        -0.12861478
  17         0.24858534
  18         0.19802671
  19         0.07920131
  20        -0.08739865
  21        -0.00002994
  22         0.02352739
  23         0.01255991
  24        -0.00000470
  25        -0.00665202
  26         0.01923359
  27        -0.00943159
  28        -0.00409129
  29        -0.00000131
  30         0.00000688
  31         0.06400821
  32        -0.11804959
  33        -0.08785298
  34        -0.03482533
  35        -0.11410722
  36        -0.00000350
  37        -0.01438699
  38        -0.02871786
  39        -0.00000046
  40         0.00226018
  41        -0.00852154
  42         0.00560747
  43        -0.00271016
  44         0.00000061
  45         0.00000081
  46        -0.10157413
  47         0.19466203
  48         0.15516777
  49        -0.03200666
  50         0.15031995
  51         0.00002942
  52        -0.01060603
  53         0.01217990
  54         0.00000450
  55        -0.00665138
  56         0.01007146
  57        -0.00647722
  58        -0.00825345
  59        -0.00000143
  60         0.00000461
  61         0.07694302
  62         0.00950826
  63        -0.03692791
  64         0.00674495
  65         0.08230661
  66        -0.15697326
  67        -0.11403352
  68        -0.09089362
  69         0.06072026
  70        -0.00000286
  71        -0.03457867
  72         0.03487201
  73        -0.00000112
  74        -0.00853928
  75        -0.00454291
  76         0.00676874
  77        -0.00378273
  78         0.00000131
  79         0.00000101
  80         0.06549122
  81        -0.12882920
  82        -0.10945651
  83         0.10261634
  84         0.06633809
  85        -0.00000577
  86         0.00864133
  87         0.01570693
  88        -0.00000389
  89        -0.01083591
  90         0.00487166
  91         0.00438919
  92         0.00417482
  93         0.00000074
  94         0.00000204
  95        -0.06794907
  96        -0.02732184
  97        -0.04672909
  98        -0.00374213
Sym=    10a  
Ene=    -0.7963
Spin= Alpha
Occup=    2.00000
   1        -0.01241867
   2         0.02505925
   3         0.02692644
   4        -0.00469091
   5        -0.03063913
   6         0.00000146
   7         0.00260674
   8        -0.00358869
   9         0.00000272
  10        -0.00280029
  11         0.00270774
  12        -0.00069051
  13         0.00051741
  14        -0.00000025
  15        -0.00000024
  16         0.08292776
  17        -0.16221620
  18        -0.16191604
  19        -0.07830077
  20        -0.08372118
  21        -0.00000046
  22        -0.03605184
  23        -0.04368401
  24         0.00000265
  25         0.00058054
  26        -0.01355437
  27         0.00659992
  28        -0.00205030
  29         0.00000062
  30        -0.00000416
  31        -0.01432637
  32         0.03004063
  33         0.02426406
  34         0.01089224
  35         0.02847051
  36        -0.00000489
  37        -0.00536635
  38        -0.01183646
  39         0.00000109
  40         0.00039636
  41        -0.00353609
  42        -0.00010550
  43         0.00350682
  44        -0.00000016
  45        -0.00000064
  46        -0.05406763
  47         0.10934199
  48         0.08038033
  49        -0.06705364
  50        -0.20544214
  51        -0.00002621
  52        -0.02404733
  53        -0.03364945
  54        -0.00000357
  55         0.00159980
  56         0.00726185
  57        -0.00448651
  58         0.00804229
  59         0.00000072
  60         0.00000210
  61        -0.12755030
  62        -0.05321688
  63        -0.00240582
  64        -0.00427195
  65         0.11215406
  66        -0.22200297
  67        -0.19314094
  68        -0.00077003
  69         0.16612097
  70        -0.00001520
  71         0.01484402
  72         0.09170824
  73        -0.00001280
  74        -0.00413528
  75        -0.01125167
  76         0.00803962
  77        -0.01014304
  78         0.00000276
  79         0.00000430
  80        -0.05521512
  81         0.11070990
  82         0.10324664
  83         0.21635631
  84         0.11555777
  85         0.00000397
  86         0.08280773
  87         0.01266720
  88        -0.00000049
  89        -0.00879202
  90         0.01721689
  91        -0.00470577
  92         0.00177191
  93         0.00000305
  94         0.00000118
  95        -0.17125093
  96        -0.07150618
  97         0.05462093
  98         0.02001692
Sym=    11a  
Ene=    -0.7145
Spin= Alpha
Occup=    2.00000
   1        -0.03875493
   2         0.07601639
   3         0.08078379
   4        -0.02668600
   5         0.28314360
   6         0.00002744
   7        -0.01595305
   8         0.11312823
   9         0.00001284
  10         0.00081296
  11         0.01552132
  12        -0.00355114
  13        -0.01147091
  14        -0.00000152
  15         0.00000821
  16        -0.02370998
  17         0.04693634
  18         0.04406404
  19         0.02126289
  20         0.24155094
  21         0.00004088
  22         0.01457373