[Molden Format]
[N_Atoms]
                   10
[Atoms] (AU)
C1          1      6          -1.78773095      2.27405224     -0.00093216
C2          2      6           1.80286001      2.28268194      0.00222948
C3          3      6          -2.62635590      0.00141246      0.00089085
C4          4      6           2.62402245     -0.02176785     -0.00101633
H5          5      1           2.46245593      4.18358974      0.00012873
H6          6      1          -2.46272461      4.17122976     -0.00067645
C7          7      6          -1.27567944     -2.35188342     -0.00037205
C8          8      6           1.28013139     -2.35740709      0.00298437
H9          9      1          -2.28961313     -4.13344508      0.00108121
H10        10      1           2.27263422     -4.12736408     -0.00431770
[Charge] (Mulliken)
 -0.29365383299299808     
 -0.29340006194380130     
   2.6024509256104444E-002
   2.7534428858316140E-002
  0.26702676426263705     
  0.26583701084360500     
 -0.22939053229598905     
 -0.22917381023102568     
  0.22887692819175853     
  0.23031859604972105     
[GTO] (AU)
   1
   s   6
  3.047524880E+03  1.834737132E-03
  4.573695180E+02  1.403732281E-02
  1.039486850E+02  6.884262227E-02
  2.921015530E+01  2.321844432E-01
  9.286662960E+00  4.679413484E-01
  3.163926960E+00  3.623119853E-01
   s   3
  7.868272350E+00 -1.193324198E-01
  1.881288540E+00 -1.608541517E-01
  5.442492580E-01  1.143456438E+00
   s   1
  1.687144782E-01  1.000000000E+00
   p   3
  7.868272350E+00  6.899906659E-02
  1.881288540E+00  3.164239610E-01
  5.442492580E-01  7.443082909E-01
   p   1
  1.687144782E-01  1.000000000E+00
   d   1
  8.000000000E-01  1.000000000E+00
 
   2
   s   6
  3.047524880E+03  1.834737132E-03
  4.573695180E+02  1.403732281E-02
  1.039486850E+02  6.884262227E-02
  2.921015530E+01  2.321844432E-01
  9.286662960E+00  4.679413484E-01
  3.163926960E+00  3.623119853E-01
   s   3
  7.868272350E+00 -1.193324198E-01
  1.881288540E+00 -1.608541517E-01
  5.442492580E-01  1.143456438E+00
   s   1
  1.687144782E-01  1.000000000E+00
   p   3
  7.868272350E+00  6.899906659E-02
  1.881288540E+00  3.164239610E-01
  5.442492580E-01  7.443082909E-01
   p   1
  1.687144782E-01  1.000000000E+00
   d   1
  8.000000000E-01  1.000000000E+00
 
   3
   s   6
  3.047524880E+03  1.834737132E-03
  4.573695180E+02  1.403732281E-02
  1.039486850E+02  6.884262227E-02
  2.921015530E+01  2.321844432E-01
  9.286662960E+00  4.679413484E-01
  3.163926960E+00  3.623119853E-01
   s   3
  7.868272350E+00 -1.193324198E-01
  1.881288540E+00 -1.608541517E-01
  5.442492580E-01  1.143456438E+00
   s   1
  1.687144782E-01  1.000000000E+00
   p   3
  7.868272350E+00  6.899906659E-02
  1.881288540E+00  3.164239610E-01
  5.442492580E-01  7.443082909E-01
   p   1
  1.687144782E-01  1.000000000E+00
   d   1
  8.000000000E-01  1.000000000E+00
 
   4
   s   6
  3.047524880E+03  1.834737132E-03
  4.573695180E+02  1.403732281E-02
  1.039486850E+02  6.884262227E-02
  2.921015530E+01  2.321844432E-01
  9.286662960E+00  4.679413484E-01
  3.163926960E+00  3.623119853E-01
   s   3
  7.868272350E+00 -1.193324198E-01
  1.881288540E+00 -1.608541517E-01
  5.442492580E-01  1.143456438E+00
   s   1
  1.687144782E-01  1.000000000E+00
   p   3
  7.868272350E+00  6.899906659E-02
  1.881288540E+00  3.164239610E-01
  5.442492580E-01  7.443082909E-01
   p   1
  1.687144782E-01  1.000000000E+00
   d   1
  8.000000000E-01  1.000000000E+00
 
   5
   s   3
  1.873113696E+01  3.349460434E-02
  2.825394365E+00  2.347269535E-01
  6.401216923E-01  8.137573261E-01
   s   1
  1.612777588E-01  1.000000000E+00
 
   6
   s   3
  1.873113696E+01  3.349460434E-02
  2.825394365E+00  2.347269535E-01
  6.401216923E-01  8.137573261E-01
   s   1
  1.612777588E-01  1.000000000E+00
 
   7
   s   6
  3.047524880E+03  1.834737132E-03
  4.573695180E+02  1.403732281E-02
  1.039486850E+02  6.884262227E-02
  2.921015530E+01  2.321844432E-01
  9.286662960E+00  4.679413484E-01
  3.163926960E+00  3.623119853E-01
   s   3
  7.868272350E+00 -1.193324198E-01
  1.881288540E+00 -1.608541517E-01
  5.442492580E-01  1.143456438E+00
   s   1
  1.687144782E-01  1.000000000E+00
   p   3
  7.868272350E+00  6.899906659E-02
  1.881288540E+00  3.164239610E-01
  5.442492580E-01  7.443082909E-01
   p   1
  1.687144782E-01  1.000000000E+00
   d   1
  8.000000000E-01  1.000000000E+00
 
   8
   s   6
  3.047524880E+03  1.834737132E-03
  4.573695180E+02  1.403732281E-02
  1.039486850E+02  6.884262227E-02
  2.921015530E+01  2.321844432E-01
  9.286662960E+00  4.679413484E-01
  3.163926960E+00  3.623119853E-01
   s   3
  7.868272350E+00 -1.193324198E-01
  1.881288540E+00 -1.608541517E-01
  5.442492580E-01  1.143456438E+00
   s   1
  1.687144782E-01  1.000000000E+00
   p   3
  7.868272350E+00  6.899906659E-02
  1.881288540E+00  3.164239610E-01
  5.442492580E-01  7.443082909E-01
   p   1
  1.687144782E-01  1.000000000E+00
   d   1
  8.000000000E-01  1.000000000E+00
 
   9
   s   3
  1.873113696E+01  3.349460434E-02
  2.825394365E+00  2.347269535E-01
  6.401216923E-01  8.137573261E-01
   s   1
  1.612777588E-01  1.000000000E+00
 
  10
   s   3
  1.873113696E+01  3.349460434E-02
  2.825394365E+00  2.347269535E-01
  6.401216923E-01  8.137573261E-01
   s   1
  1.612777588E-01  1.000000000E+00
 
[MO]
Sym=     1a  
Ene=   -11.2720
Spin= Alpha
Occup=    2.00000
   1         0.02082137
   2         0.00033207
   3         0.00302903
   4         0.00008285
   5         0.00001957
   6         0.00000016
   7         0.00133655
   8        -0.00097920
   9         0.00000056
  10        -0.00020796
  11        -0.00009985
  12        -0.00022188
  13        -0.00000577
  14        -0.00000012
  15        -0.00000017
  16         0.99429566
  17         0.02670557
  18        -0.01286560
  19         0.00006432
  20         0.00025731
  21        -0.00000254
  22         0.00050220
  23         0.00167267
  24         0.00000773
  25        -0.00240109
  26        -0.00098526
  27        -0.00210423
  28        -0.00002378
  29         0.00000002
  30        -0.00000035
  31         0.00076884
  32         0.00003620
  33        -0.00191748
  34        -0.00006652
  35        -0.00006455
  36        -0.00000023
  37        -0.00079910
  38        -0.00009804
  39         0.00000170
  40         0.00000603
  41         0.00000273
  42        -0.00001768
  43        -0.00001017
  44         0.00000040
  45        -0.00000001
  46         0.04944048
  47         0.00068077
  48         0.00565128
  49         0.00012155
  50        -0.00024640
  51        -0.00000053
  52        -0.00124918
  53         0.00234506
  54         0.00000171
  55        -0.00034870
  56        -0.00015641
  57        -0.00027206
  58         0.00001469
  59         0.00000013
  60        -0.00000027
  61        -0.00051349
  62         0.00185571
  63        -0.00008670
  64         0.00028917
  65        -0.00165067
  66        -0.00015600
  67         0.00156434
  68        -0.00001139
  69        -0.00004330
  70        -0.00000006
  71         0.00050991
  72         0.00070835
  73         0.00000070
  74         0.00001821
  75        -0.00002315
  76        -0.00005489
  77        -0.00003238
  78         0.00000021
  79         0.00000012
  80         0.00240438
  81         0.00005253
  82        -0.00107461
  83        -0.00002524
  84        -0.00006938
  85        -0.00000018
  86         0.00071373
  87        -0.00044955
  88         0.00000156
  89        -0.00005763
  90         0.00004853
  91        -0.00001733
  92        -0.00003951
  93        -0.00000025
  94         0.00000055
  95         0.00002667
  96         0.00021474
  97        -0.00004475
  98        -0.00005986
Sym=     2a  
Ene=   -11.2690
Spin= Alpha
Occup=    2.00000
   1         0.99383433
   2         0.02679836
   3        -0.01310779
   4        -0.00006104
   5         0.00025758
   6         0.00000117
   7        -0.00051574
   8         0.00171177
   9        -0.00000473
  10        -0.00242165
  11        -0.00101268
  12        -0.00213591
  13         0.00004006
  14        -0.00000020
  15        -0.00000016
  16        -0.02097070
  17        -0.00079423
  18         0.00355233
  19        -0.00008612
  20         0.00000890
  21        -0.00000016
  22        -0.00134339
  23        -0.00105956
  24        -0.00000120
  25        -0.00010724
  26        -0.00005542
  27        -0.00013407
  28         0.00000636
  29         0.00000001
  30         0.00000024
  31         0.05126342
  32         0.00070065
  33         0.00591196
  34        -0.00011818
  35        -0.00021139
  36         0.00000026
  37         0.00133723
  38         0.00232737
  39        -0.00000087
  40        -0.00036250
  41        -0.00011584
  42        -0.00028458
  43         0.00001917
  44        -0.00000003
  45         0.00000001
  46        -0.00131228
  47        -0.00000016
  48        -0.00213346
  49         0.00006066
  50        -0.00005425
  51         0.00000023
  52         0.00083149
  53        -0.00022479
  54        -0.00000301
  55         0.00002470
  56         0.00000005
  57        -0.00000963
  58         0.00000972
  59         0.00000058
  60         0.00000009
  61        -0.00006606
  62         0.00021593
  63        -0.00049639
  64         0.00186145
  65         0.02630881
  66         0.00071212
  67        -0.00143548
  68         0.00002452
  69        -0.00006035
  70         0.00000028
  71        -0.00072670
  72        -0.00048772
  73        -0.00000191
  74        -0.00010450
  75         0.00001031
  76        -0.00007092
  77         0.00004499
  78        -0.00000020
  79        -0.00000035
  80         0.00346419
  81        -0.00002303
  82         0.00162951
  83         0.00001733
  84        -0.00004200
  85        -0.00000006
  86        -0.00059181
  87         0.00075149
  88        -0.00000021
  89         0.00000703
  90        -0.00004104
  91        -0.00006958
  92         0.00003486
  93         0.00000028
  94        -0.00000025
  95        -0.00004936
  96        -0.00001171
  97         0.00003009
  98         0.00024483
Sym=     3a  
Ene=   -11.2690
Spin= Alpha
Occup=    2.00000
   1        -0.02728442
   2        -0.00078502
   3        -0.00057296
   4        -0.00003057
   5        -0.00001211
   6         0.00000040
   7        -0.00025014
   8         0.00047102
   9        -0.00000189
  10         0.00010550
  11         0.00015274
  12         0.00001817
  13         0.00005265
  14        -0.00000029
  15         0.00000009
  16         0.00111018
  17        -0.00006142
  18         0.00082354
  19         0.00005449
  20         0.00001931
  21        -0.00000009
  22        -0.00014996
  23        -0.00066528
  24         0.00000082
  25        -0.00001511
  26         0.00002418
  27        -0.00005602
  28        -0.00002555
  29         0.00000012
  30        -0.00000002
  31         0.01893151
  32         0.00043249
  33         0.00466651
  34        -0.00010906
  35         0.00009113
  36         0.00000009
  37         0.00143361
  38        -0.00116758
  39         0.00000117
  40        -0.00031298
  41        -0.00062412
  42        -0.00019521
  43         0.00015173
  44         0.00000009
  45        -0.00000049
  46         0.00715789
  47         0.00014257
  48        -0.00083254
  49         0.00004390
  50         0.00004922
  51         0.00000031
  52         0.00040556
  53        -0.00042651
  54        -0.00000423
  55        -0.00000431
  56        -0.00011305
  57        -0.00003953
  58         0.00000877
  59         0.00000079
  60         0.00000011
  61         0.00002408
  62         0.00024428
  63        -0.00001811
  64        -0.00011701
  65         0.95860409
  66         0.02640237
  67        -0.01256054
  68        -0.00003627
  69         0.00030058
  70         0.00000329
  71        -0.00070442
  72        -0.00187802
  73        -0.00000835
  74        -0.00153976
  75        -0.00171373
  76        -0.00222601
  77        -0.00006728
  78        -0.00000023
  79        -0.00000062
  80         0.26647286
  81         0.00702844
  82         0.00204671
  83         0.00019559
  84         0.00003604
  85        -0.00000082
  86        -0.00193880
  87         0.00089892
  88         0.00000331
  89        -0.00077787
  90        -0.00075103
  91        -0.00073970
  92        -0.00003736
  93        -0.00000065
  94        -0.00000004
  95        -0.00019805
  96         0.00141713
  97        -0.00003358
  98         0.00076881
Sym=     4a  
Ene=   -11.2660
Spin= Alpha
Occup=    2.00000
   1         0.00396895
   2         0.00002784
   3         0.00156201
   4        -0.00004507
   5         0.00002368
   6        -0.00000020
   7         0.00036090
   8        -0.00109702
   9         0.00000069
  10        -0.00004987
  11        -0.00005131
  12        -0.00005097
  13         0.00000018
  14         0.00000029
  15        -0.00000007
  16        -0.00439498
  17        -0.00012262
  18        -0.00148842
  19        -0.00000155
  20        -0.00001086
  21        -0.00000060
  22         0.00040959
  23         0.00099050
  24         0.00000235
  25         0.00005761
  26         0.00013142
  27        -0.00000095
  28        -0.00004000
  29        -0.00000068
  30        -0.00000014
  31        -0.00651401
  32        -0.00016959
  33        -0.00387910
  34         0.00000874
  35         0.00000136
  36        -0.00000044
  37        -0.00136745
  38         0.00018042
  39         0.00000276
  40         0.00019117
  41         0.00024201
  42         0.00008102
  43        -0.00009789
  44         0.00000054
  45         0.00000021
  46         0.03095316
  47         0.00074149
  48         0.00602277
  49         0.00009435
  50         0.00008642
  51        -0.00000062
  52        -0.00192062
  53        -0.00104714
  54         0.00000264
  55        -0.00039965
  56        -0.00066004
  57        -0.00023234
  58        -0.00017805
  59         0.00000023
  60         0.00000129
  61        -0.00005206
  62        -0.00024002
  63         0.00004432
  64         0.00033052
  65        -0.26711055
  66        -0.00775342
  67         0.01000548
  68        -0.00019964
  69        -0.00013810
  70        -0.00000172
  71         0.00269114
  72         0.00216144
  73         0.00000239
  74         0.00003629
  75         0.00015861
  76         0.00049254
  77         0.00007949
  78        -0.00000096
  79         0.00000031
  80         0.95881728
  81         0.02673219
  82        -0.01596043
  83        -0.00006097
  84         0.00033486
  85        -0.00000432
  86         0.00200007
  87        -0.00274074
  88         0.00001295
  89        -0.00137383
  90        -0.00155430
  91        -0.00219870
  92         0.00009421
  93        -0.00000082
  94         0.00000183
  95         0.00008125
  96         0.00001929
  97        -0.00022341
  98         0.00121617
Sym=     5a  
Ene=   -11.2510
Spin= Alpha
Occup=    2.00000
   1         0.00072389
   2         0.00012358
   3        -0.00215323
   4        -0.00008389
   5         0.00002831
   6         0.00000049
   7        -0.00047372
   8         0.00099681
   9        -0.00000319
  10        -0.00003500
  11         0.00002170
  12         0.00001826
  13        -0.00001136
  14        -0.00000054
  15         0.00000041
  16        -0.05024530
  17        -0.00198410
  18         0.00821084
  19        -0.00016568
  20         0.00030744
  21         0.00000102
  22        -0.00053065
  23        -0.00461712
  24        -0.00000149
  25        -0.00023548
  26        -0.00013483
  27        -0.00006797
  28         0.00014821
  29         0.00000123
  30        -0.00000023
  31        -0.00657187
  32        -0.00037897
  33         0.00279269
  34        -0.00006567
  35         0.00001014
  36         0.00000041
  37         0.00101045
  38         0.00018249
  39        -0.00000053
  40        -0.00002968
  41        -0.00002877
  42        -0.00009503
  43         0.00000251
  44        -0.00000036
  45        -0.00000020
  46         0.99406583
  47         0.02702140
  48        -0.01753894
  49        -0.00111961
  50        -0.00016265
  51         0.00000521
  52         0.00467090
  53        -0.00098132
  54        -0.00001589
  55        -0.00209137
  56        -0.00077581
  57        -0.00207675
  58         0.00011974
  59         0.00000022
  60         0.00000002
  61         0.00005041
  62         0.00100362
  63        -0.00002137
  64        -0.00013160
  65         0.00170844
  66        -0.00001052
  67        -0.00311198
  68        -0.00003273
  69        -0.00005244
  70         0.00000072
  71        -0.00076889
  72        -0.00103211
  73        -0.00000520
  74         0.00016797
  75         0.00006617
  76        -0.00002405
  77        -0.00001461
  78        -0.00000022
  79        -0.00000091
  80        -0.03242531
  81        -0.00111034
  82         0.00734998
  83        -0.00010547
  84        -0.00031910
  85         0.00000056
  86        -0.00089427
  87         0.00348373
  88         0.00000038
  89        -0.00047889
  90        -0.00053821
  91        -0.00015623
  92        -0.00036902
  93         0.00000165
  94         0.00000059
  95        -0.00000887
  96        -0.00005800
  97         0.00001062
  98         0.00068623
Sym=     6a  
Ene=   -11.2470
Spin= Alpha
Occup=    2.00000
   1         0.05165283
   2         0.00205987
   3        -0.00841636
   4        -0.00016595
   5        -0.00028885
   6         0.00000051
   7        -0.00047525
   8         0.00464902
   9        -0.00000214
  10         0.00023268
  11         0.00008118
  12         0.00006567
  13         0.00012135
  14        -0.00000061
  15         0.00000004
  16         0.00003397
  17        -0.00010170
  18         0.00205747
  19        -0.00008197
  20        -0.00003062
  21         0.00000018
  22        -0.00047366
  23        -0.00098993
  24        -0.00000231
  25         0.00003593
  26        -0.00001839
  27        -0.00002118
  28        -0.00001033
  29         0.00000043
  30         0.00000035
  31        -0.99426619
  32        -0.02710938
  33         0.01758466
  34        -0.00112239
  35         0.00013945
  36         0.00000280
  37         0.00469610
  38         0.00103268
  39        -0.00000701
  40         0.00212195
  41         0.00082053
  42         0.00210372
  43         0.00008210
  44         0.00000010
  45         0.00000036
  46        -0.00658127
  47         0.00001983
  48        -0.00260326
  49        -0.00004957
  50        -0.00000718
  51         0.00000019
  52         0.00095109
  53        -0.00019436
  54        -0.00000214
  55         0.00005771
  56         0.00003825
  57         0.00012072
  58         0.00000091
  59         0.00000046
  60        -0.00000018
  61         0.00002373
  62         0.00014174
  63        -0.00004446
  64        -0.00098439
  65         0.02186161
  66         0.00078873
  67        -0.00714490
  68        -0.00009579
  69         0.00029420
  70         0.00000037
  71        -0.00088275
  72        -0.00340481
  73        -0.00000074
  74         0.00048696
  75         0.00055947
  76         0.00018216
  77        -0.00036957
  78        -0.00000063
  79         0.00000013
  80        -0.00084791
  81         0.00002867
  82         0.00299708
  83        -0.00003502
  84         0.00005550
  85         0.00000036
  86        -0.00076908
  87         0.00102465
  88        -0.00000368
  89        -0.00015357
  90        -0.00005627
  91         0.00002328
  92        -0.00001352
  93         0.00000005
  94        -0.00000071
  95        -0.00000330
  96        -0.00067269
  97         0.00001097
  98         0.00007282
Sym=     7a  
Ene=    -1.1365
Spin= Alpha
Occup=    2.00000
   1        -0.06748335
   2         0.12764899
   3         0.08926337
   4         0.00170366
   5        -0.05849882
   6         0.00005501
   7         0.00430072
   8        -0.00417100
   9         0.00002141
  10        -0.00026478
  11         0.00853877
  12        -0.00588262
  13         0.00039496
  14         0.00000586
  15        -0.00000907
  16        -0.06604161
  17         0.12529371
  18         0.08770374
  19        -0.00299739
  20        -0.05698054
  21        -0.00008207
  22        -0.00442667
  23        -0.00478947
  24        -0.00002739
  25        -0.00019224
  26         0.00851670
  27        -0.00577380
  28        -0.00024647
  29         0.00000379
  30         0.00000974
  31        -0.08989655
  32         0.17198685
  33         0.10073558
  34         0.06373448
  35        -0.00420597
  36        -0.00006362
  37         0.00902351
  38        -0.00423848
  39        -0.00001873
  40        -0.00046601
  41         0.01033268
  42        -0.00816953
  43        -0.00340389
  44        -0.00000921
  45        -0.00000217
  46        -0.09027973
  47         0.17336107
  48         0.10232078
  49        -0.06390308
  50        -0.00819241
  51         0.00014482
  52        -0.00955552
  53        -0.00427368
  54         0.00003793
  55        -0.00052582
  56         0.01039596
  57        -0.00827721
  58         0.00383832
  59        -0.00002223
  60        -0.00000646
  61         0.02494781
  62         0.00152768
  63         0.02530175
  64         0.00115612
  65        -0.11572330
  66         0.22321407
  67         0.14588247
  68         0.05713844
  69         0.04421616
  70         0.00011248
  71         0.00566818
  72         0.00357903
  73         0.00003215
  74         0.01039841
  75         0.00607413
  76        -0.01017152
  77        -0.00061914
  78         0.00001720
  79         0.00000213
  80        -0.11729485
  81         0.22625826
  82         0.14564952
  83        -0.05495249
  84         0.04523938
  85        -0.00024562
  86        -0.00434338
  87         0.00248054
  88        -0.00007211
  89         0.01014296
  90         0.00630022
  91        -0.01024940
  92         0.00055755
  93         0.00000159
  94         0.00000493
  95         0.04796558
  96         0.00420471
  97         0.04963249
  98         0.00380998
Sym=     8a  
Ene=    -1.0134
Spin= Alpha
Occup=    2.00000
   1         0.11798415
   2        -0.22933180
   3        -0.17272853
   4         0.05670748
   5         0.09648773
   6        -0.00008460
   7         0.00868040
   8        -0.01108971
   9        -0.00001627
  10         0.00735232
  11        -0.01732963
  12         0.00904652
  13        -0.00372301
  14         0.00000025
  15         0.00001273
  16        -0.07188838
  17         0.14246326
  18         0.09717722
  19         0.05097787
  20        -0.07778588
  21        -0.00008686
  22         0.00980553
  23         0.01221146
  24        -0.00002039
  25        -0.00805043
  26         0.01208196
  27        -0.00509993
  28        -0.00309325
  29        -0.00000731
  30         0.00000869
  31         0.13187592
  32        -0.25458649
  33        -0.19209325
  34        -0.05570954
  35        -0.07477795
  36         0.00011785
  37        -0.01076577
  38        -0.00405460
  39         0.00002736
  40         0.00559366
  41        -0.01381429
  42         0.01005698
  43        -0.00245417
  44         0.00001100
  45         0.00001269
  46        -0.11208814
  47         0.21750855
  48         0.16981869
  49        -0.05018389
  50         0.01684839
  51         0.00019262
  52        -0.01194541
  53         0.00345137
  54         0.00005702
  55        -0.00412580
  56         0.01301182
  57        -0.00892684
  58         0.00198136
  59        -0.00002243
  60         0.00000119
  61         0.03129997
  62        -0.00388065
  63        -0.05894441
  64        -0.00161241
  65         0.03192786
  66        -0.06187283
  67        -0.04693710
  68         0.07936248
  69        -0.05818259
  70        -0.00001102
  71         0.00843837
  72        -0.01113905
  73         0.00000257
  74         0.00414857
  75        -0.01161193
  76         0.00335845
  77         0.00592668
  78         0.00000687
  79        -0.00000541
  80        -0.07191440
  81         0.13991158
  82         0.11122295
  83         0.04960064
  84         0.04439219
  85        -0.00018286
  86         0.00836073
  87         0.00538416
  88        -0.00005461
  89         0.00032997
  90         0.01124469
  91        -0.00643182
  92         0.00443917
  93        -0.00002083
  94         0.00000452
  95        -0.01824645
  96        -0.00638698
  97         0.04453013
  98         0.01016388
Sym=     9a  
Ene=    -1.0041
Spin= Alpha
Occup=    2.00000
   1         0.08905878
   2        -0.16791338
   3        -0.15363165
   4        -0.00296805
   5         0.01976228
   6        -0.00006902
   7        -0.00624205
   8         0.00454096
   9        -0.00001960
  10        -0.00351091
  11        -0.00991255
  12         0.00778805
  13        -0.00037739
  14        -0.00000602
  15         0.00000910
  16         0.12888511
  17        -0.24661323
  18        -0.21168789
  19        -0.01861564
  20         0.05487105
  21         0.00018233
  22         0.00241894
  23         0.00042202
  24         0.00004982
  25        -0.00011663
  26        -0.01630689
  27         0.01076319
  28         0.00157242
  29         0.00000067
  30        -0.00001118
  31         0.02128636
  32        -0.04073328
  33        -0.01712329
  34        -0.00021454
  35        -0.12117668
  36         0.00003665
  37         0.00587314
  38        -0.00353983
  39        -0.00000141
  40         0.00280597
  41         0.00089345
  42         0.00072011
  43        -0.00972774
  44         0.00000009
  45         0.00001027
  46         0.07134206
  47        -0.13800807
  48        -0.09460370
  49         0.02019282
  50        -0.14074470
  51        -0.00011348
  52        -0.00074195
  53        -0.00528591
  54        -0.00001061
  55         0.00485557
  56        -0.00484805
  57         0.00460244
  58         0.00968638
  59         0.00000736
  60        -0.00002638
  61        -0.07847356
  62        -0.01536654
  63        -0.05854861
  64        -0.01497859
  65        -0.10624241
  66         0.20753145
  67         0.17107054
  68         0.06292958
  69        -0.02611709
  70         0.00013495
  71         0.00028628
  72        -0.01270130
  73         0.00004488
  74         0.01059275
  75         0.00152616
  76        -0.00830954
  77         0.00250585
  78         0.00001813
  79        -0.00000662
  80        -0.08514334
  81         0.16607497
  82         0.13946399
  83        -0.08921675
  84        -0.04803767
  85        -0.00021256
  86        -0.00431022
  87        -0.01504592
  88        -0.00009001
  89         0.01124824
  90        -0.00292776
  91        -0.00633665
  92        -0.00479919
  93         0.00000508
  94         0.00003691
  95         0.06937094
  96         0.01214562
  97         0.05782403
  98         0.00917952
Sym=    10a  
Ene=    -0.8454
Spin= Alpha
Occup=    2.00000
   1        -0.08340751
   2         0.16646551
   3         0.15517640
   4        -0.06242474
   5         0.00538861
   6         0.00004833
   7        -0.01676240
   8         0.02872010
   9         0.00002537
  10        -0.00454454
  11         0.01297416
  12        -0.00640290
  13         0.00060041
  14        -0.00000459
  15        -0.00000779
  16         0.08526998
  17        -0.17069407
  18        -0.15873513
  19        -0.05947373
  20        -0.01002432
  21         0.00012516
  22        -0.01565565
  23        -0.03037777
  24         0.00003963
  25         0.00458921
  26        -0.01346648
  27         0.00653971
  28         0.00023936
  29         0.00001363
  30        -0.00000079
  31         0.01604984
  32        -0.03520350
  33        -0.02187812
  34        -0.02612918
  35         0.20106702
  36        -0.00003091
  37        -0.00763971
  38         0.03114150
  39        -0.00002710
  40        -0.00167060
  41        -0.00568057
  42         0.00192015
  43         0.01024526
  44         0.00000306
  45        -0.00001556
  46        -0.01885171
  47         0.04107049
  48         0.02346841
  49        -0.02699912
  50        -0.20224830
  51         0.00003888
  52        -0.00680474
  53        -0.03240652
  54         0.00000661
  55         0.00126092
  56         0.00577236
  57        -0.00210130
  58         0.01009334
  59        -0.00001300
  60        -0.00004243
  61        -0.08773100
  62        -0.02334979
  63         0.08417921
  64         0.02180764
  65         0.09855821
  66        -0.19839894
  67        -0.17598047
  68         0.12695562
  69        -0.01096136
  70        -0.00012494
  71         0.06046844
  72         0.01938127
  73         0.00000393
  74         0.00154070
  75        -0.01472433
  76         0.00781860
  77        -0.00012235
  78         0.00000661
  79         0.00000272
  80        -0.09566408
  81         0.19240954
  82         0.16990064
  83         0.13578053
  84         0.01348477
  85        -0.00036508
  86         0.06176101
  87        -0.01835279
  88        -0.00014581
  89        -0.00209047
  90         0.01505893
  91        -0.00767978
  92         0.00018063
  93        -0.00005360
  94         0.00003853
  95        -0.10490475
  96        -0.03041331
  97         0.10414141
  98         0.02981874
Sym=    11a  
Ene=    -0.7784
Spin= Alpha
Occup=    2.00000
   1        -0.05666435
   2         0.11284398
   3         0.10855144
   4         0.00794607
   5         0.20281666
   6         0.00000102
   7         0.01005381
   8         0.08447529
   9         0.00000403
  10         0.00323089
  11         0.01249838
  12        -0.00485504
  13        -0.00731123
  14         0.00000604
  15         0.00000688
  16        -0.05568387
  17         0.11106960
  18         0.10696756
  19        -0.00928774
  20         0.20585925
  21        -0.00009724
  22        -0.00991865