   This run of MOLCAS is using the pymolcas driver

                             OPE
                             OPE          NMOL  CASOP  ENMOLC A   SO
                 OPE        NMOLC        AS  OP EN  MO LC     AS  OP
                OPENM       OL CA        SO  PE NM  OL CA     SOP EN
                OP EN      MO   LC       AS  OP ENMOL  CASO   PENMOL
                OP  EN     MO   LC       AS  OP EN     MO     LC ASO
               OP   E  NMOL  C  AS       OP  EN MO     LC     AS  OP
               OP  E   NMO   LC AS        OPEN  MO     LCASOP EN   M
               O  PEN   MO  LCA  SO
            OPE   NMO   L   CAS    OP
        OPENMOL  CASOP     ENMOL   CASOPE
     OPENMOLCA   SOPENMOLCASOPEN   MOLCASOPE
    OPENMOLCAS   OP           EN   MOL    CAS
    OPENMOLCAS       OP  ENM        O     LCA
    OPENMOLCAS    OPEN  MOLCASO     P  E  NMO
    OPENMOLCAS     OP               E  N  MOL
    OPENMOLCA   SO           PENM   O  L  CAS    OPEN    MO    LCAS
    OPENMOLCA   SOP           ENM   O  L  CAS   OP  EN  MOLC  AS   O
    OPENMOLCA   SOPE           NM      O  LCA   S      OP  EN MO
    OPENMOLC                AS         O  PEN   M      OL  CA  SOPE
    OPENMO        LCASOPE  NMOL        C  ASO   P      ENMOLC     AS
    OPE     NMO      LCA  SO     P     E   NM   OL  CA SO  PE N   MO
          OPENMOLCA            SOPE   NMO        LCAS  O    P  ENMO
     OPENMOLCASOPENMOLCASOPENMOLCASOPENMOLCA
        OPENMOLCASOPENMOLCASOPENMOLCASOPE
            OPENMOLCASOPENMOLCASOPENM
               OPENMOLCASOPENMOLCA        version: 24.02
                   OPENMOLCASO
                       OPE                tag: 428-g03afa2e9a

 OpenMolcas is free software; you can redistribute it and/or modify it
 under the terms of the GNU Lesser General Public License version 2.1.
 OpenMolcas is distributed in the hope that it will be useful, but it
 is provided "as is" and without any express or implied warranties.
 For more details see the full text of the license in the file
 LICENSE or in <http://www.gnu.org/licenses/>.

                 Copyright (C) The OpenMolcas Authors
           For the author list and the recommended citation,
                   consult the file CONTRIBUTORS.md

           *************************************************
           * pymolcas version py2.28                       *
           *   build c4a6d18ded8cb6cad61d2372a9abd97c      *
           *   (after the EMIL interpreter by V. Veryazov) *
           *************************************************

configuration info
------------------
Host name: DESKTOP-ET1S6F4 (Linux)
C Compiler ID: GNU
C flags: -std=gnu99 -fopenmp
Fortran Compiler ID: GNU
Fortran flags: -fno-aggressive-loop-optimizations -cpp -fdefault-integer-8 -fopenmp
Definitions: _WARNING_WORKAROUND_;_MOLCAS_;_I8_;_LINUX_
Parallel: OFF (GA=OFF)


   ----------------------------------------------------------------------
  |
  |           Project: ts
  |    Submitted from: /home/kenya/molcas_test/0625_re
  |      Scratch area: /tmp/ts
  |   Save outputs to: /home/kenya/molcas_test/0625_re
  |            Molcas: /home/kenya/OpenMolcas/builds/gnu_dev_omp
  |
  | Scratch area is NOT empty
  |
  |    MOLCAS_DRIVER = /home/kenya/OpenMolcas/builds/gnu_dev_omp/pymolcas
  |    MOLCAS_NPROCS = 1
  |    MOLCAS_SOURCE = /home/kenya/OpenMolcas
  | MOLCAS_STRUCTURE = 0
  |
   ----------------------------------------------------------------------

++ ---------   Input file   ---------

&GATEWAY
  Coord = ts.Opt.xyz
  Basis = 6-31G*
  Group = C1
  NoCD
  Constraints
    a = bond c1 c2
  Values
    a = 1.9 angstrom
  End of Constraints

>>> DO WHILE

  &SEWARD

  &RASSCF
    NACTEL = 12 0 0
    INACTIVE = 14
    RAS2 = 12
    alter = 3
    1 13 15
    1 24 28
    1 26 31
    LUMORB

  &ALASKA

  &SLAPAF

>>> END DO

&MCKINLEY

-- ----------------------------------

--- Start Module: gateway at Tue Jul  2 04:56:33 2024 ---

()()()()()()()()()()()()()()()()()()()()()()()()()()()()()()()()()()()()()()()()()()()()()()()()()()

                                              &GATEWAY

                                   only a single process is used
                       available to each process: 2.0 GB of memory, 1 thread
                                            pid: 252521
()()()()()()()()()()()()()()()()()()()()()()()()()()()()()()()()()()()()()()()()()()()()()()()()()()


++    Symmetry information:
      ---------------------

                    Character Table for C1 

                             E  
                    a        1  x, y, xy, Rz, z, xz, Ry, yz, Rx, I
--


++    Basis set information:
      ----------------------


      Basis set label: C.6-31G**....

      Electronic valence basis set:
      ------------------
      Associated Effective Charge   6.000000 au
      Associated Actual Charge      6.000000 au
      Nuclear Model: Point charge

      Shell  nPrim  nBasis  Cartesian Spherical Contaminant
         s      10       3        X                  
         p       4       2        X                  
         d       1       1        X                  


      Basis set label: H.6-31G....

      Electronic valence basis set:
      ------------------
      Associated Effective Charge   1.000000 au
      Associated Actual Charge      1.000000 au
      Nuclear Model: Point charge

      Shell  nPrim  nBasis  Cartesian Spherical Contaminant
         s       4       2        X                  


      Basis set label: C.6-31G**....

      Electronic valence basis set:
      ------------------
      Associated Effective Charge   6.000000 au
      Associated Actual Charge      6.000000 au
      Nuclear Model: Point charge

      Shell  nPrim  nBasis  Cartesian Spherical Contaminant
         s      10       3        X                  
         p       4       2        X                  
         d       1       1        X                  


      Basis set label: H.6-31G....

      Electronic valence basis set:
      ------------------
      Associated Effective Charge   1.000000 au
      Associated Actual Charge      1.000000 au
      Nuclear Model: Point charge

      Shell  nPrim  nBasis  Cartesian Spherical Contaminant
         s       4       2        X                  
--


++    Molecular structure info:
      -------------------------

                    ************************************************ 
                    **** Cartesian Coordinates / Bohr, Angstrom **** 
                    ************************************************ 

     Center  Label                x              y              z                     x              y              z
        1      C1              -1.788139       2.274325       0.000239             -0.946243       1.203521       0.000126
        2      C2               1.802373       2.282159      -0.000099              0.953775       1.207667      -0.000053
        3      C3              -2.628746       0.002927       0.000127             -1.391072       0.001549       0.000067
        4      C4               2.623648      -0.022008       0.000055              1.388375      -0.011646       0.000029
        5      H5               2.461318       4.183311       0.000309              1.302473       2.213713       0.000163
        6      H6              -2.460706       4.172308       0.000360             -1.302150       2.207890       0.000190
        7      C7              -1.275178      -2.354558      -0.001453             -0.674795      -1.245978      -0.000769
        8      C8               1.280077      -2.357894       0.000403              0.677388      -1.247744       0.000213
        9      H9              -2.288074      -4.132031      -0.001497             -1.210797      -2.186577      -0.000792
       10      H10              2.273428      -4.127441       0.001556              1.203046      -2.184148       0.000824

                    *************************************** 
                    *    InterNuclear Distances / Bohr    * 
                    *************************************** 

               1 C1            2 C2            3 C3            4 C4            5 H5            6 H6    
    1 C1       0.000000
    2 C2       3.590521        0.000000
    3 C3       2.421955        4.982942        0.000000
    4 C4       4.973631        2.446155        5.252453        0.000000
    5 H5       4.658553        2.012110        6.586680        4.208450        0.000000
    6 H6       2.013626        4.663315        4.172766        6.591126        4.922036        0.000000
    7 C7       4.657218        5.565112        2.718434        4.543307        7.530281        6.633661
    8 C8       5.556204        4.669356        4.566440        2.694726        6.647006        7.525756
    9 H9       6.425833        7.607470        4.148968        6.404476        9.576097        8.306134
   10 H10      7.581486        6.426886        6.410245        4.120345        8.312876        9.554991

               7 C7            8 C8            9 H9           10 H10   
    7 C7       0.000000
    8 C8       2.555259        0.000000
    9 H9       2.045818        3.984881        0.000000
   10 H10      3.966829        2.029296        4.561505        0.000000

                    ******************************************* 
                    *    InterNuclear Distances / Angstrom    * 
                    ******************************************* 

               1 C1            2 C2            3 C3            4 C4            5 H5            6 H6    
    1 C1       0.000000
    2 C2       1.900022        0.000000
    3 C3       1.281643        2.636859        0.000000
    4 C4       2.631932        1.294450        2.779478        0.000000
    5 H5       2.465200        1.064763        3.485521        2.227016        0.000000
    6 H6       1.065565        2.467720        2.208133        3.487874        2.604629        0.000000
    7 C7       2.464494        2.944930        1.438533        2.404215        3.984853        3.510382
    8 C8       2.940217        2.470917        2.416456        1.425988        3.517444        3.982459
    9 H9       3.400404        4.025700        2.195540        3.389103        5.067452        4.395417
   10 H10      4.011950        3.400962        3.392156        2.180393        4.398984        5.056284

               7 C7            8 C8            9 H9           10 H10   
    7 C7       0.000000
    8 C8       1.352185        0.000000
    9 H9       1.082600        2.108708        0.000000
   10 H10      2.099155        1.073857        2.413845        0.000000

                    ************************************** 
                    *    Valence Bond Angles / Degree    * 
                    ************************************** 
                          Atom centers                 Phi
                      3 C3       1 C1       6 H6       140.18
                      4 C4       2 C2       5 H5       141.27
                      1 C1       3 C3       7 C7       129.83
                      2 C2       4 C4       8 C8       130.48
                      3 C3       7 C7       8 C8       119.94
                      3 C3       7 C7       9 H9       120.46
                      8 C8       7 C7       9 H9       119.60
                      4 C4       8 C8       7 C7       119.83
                      4 C4       8 C8      10 H10      120.79
                      7 C7       8 C8      10 H10      119.38

           ***************************************************************
           *              Valence Dihedral Angles / Degree               *
           ***************************************************************
                    Atom centers                       Phi1     Phi2     Theta 
           6 H6       1 C1       3 C3       7 C7        140.18   129.83   179.96
           5 H5       2 C2       4 C4       8 C8        141.27   130.48   179.97
           1 C1       3 C3       7 C7       8 C8        129.83   119.94     0.09
           1 C1       3 C3       7 C7       9 H9        129.83   120.46  -179.99
           2 C2       4 C4       8 C8       7 C7        130.48   119.83     0.05
           2 C2       4 C4       8 C8      10 H10       130.48   120.79  -179.96
           3 C3       7 C7       8 C8       4 C4        119.94   119.83    -0.09
           3 C3       7 C7       8 C8      10 H10       119.94   119.38   179.92
           9 H9       7 C7       8 C8      10 H10       119.60   119.38     0.01
           4 C4       8 C8       7 C7       9 H9        119.83   119.60   179.99
--


            Nuclear Potential Energy            180.43509614 au

--- Stop Module: gateway at Tue Jul  2 04:56:33 2024 /rc=_RC_ALL_IS_WELL_ ---
*** files: xmldump
    saved to directory /home/kenya/molcas_test/0625_re

--- Start Module: seward at Tue Jul  2 04:56:33 2024 ---

()()()()()()()()()()()()()()()()()()()()()()()()()()()()()()()()()()()()()()()()()()()()()()()()()()

                                              &SEWARD

                                   only a single process is used
                       available to each process: 2.0 GB of memory, 1 thread
                                            pid: 252524
()()()()()()()()()()()()()()()()()()()()()()()()()()()()()()()()()()()()()()()()()()()()()()()()()()

               SEWARD will generate:
                  Multipole Moment integrals up to order  2
                  Kinetic Energy integrals
                  Nuclear Attraction integrals (point charge)
                  One-Electron Hamiltonian integrals
                  Velocity integrals
                  Orbital angular momentum around ( 0.0020 -0.0264 -0.0001 )
                  Velocity quadrupole around ( 0.0020 -0.0264 -0.0001 )
                  Two-Electron Repulsion integrals

                   Integrals are discarded if absolute value <: 1.00E-14
                   Integral cutoff threshold is set to       <: 1.00E-16

            Nuclear Potential Energy            180.43509614 au


      Basis set specifications :
      Symmetry species         a  
      Basis functions           98


      Input file to MOLDEN was generated!

--- Stop Module: seward at Tue Jul  2 04:56:36 2024 /rc=_RC_ALL_IS_WELL_ ---
*** files: ts.GssOrb ts.guessorb.molden xmldump
    saved to directory /home/kenya/molcas_test/0625_re
--- Module seward spent 2 seconds ---

--- Start Module: rasscf at Tue Jul  2 04:56:36 2024 ---

()()()()()()()()()()()()()()()()()()()()()()()()()()()()()()()()()()()()()()()()()()()()()()()()()()

                                              &RASSCF

                                   only a single process is used
                       available to each process: 2.0 GB of memory, 1 thread
                                            pid: 252611
()()()()()()()()()()()()()()()()()()()()()()()()()()()()()()()()()()()()()()()()()()()()()()()()()()

 ###############################################################################
 ###############################################################################
 ###                                                                         ###
 ###                                                                         ###
 ###    WARNING: Had to guess the spin.                                      ###
 ###                                                                         ###
 ###                                                                         ###
 ###############################################################################
 ###############################################################################
  Warning: no input and no reliable source
  for the spin multiplicity.
  Guess ISPIN=                    1

      Header of the ONEINT file:
      --------------------------
      
      Integrals generated by Gateway/Seward, Tue Jul  2 04:56:33 2024


      OrdInt status: non-squared


      Cartesian coordinates in Angstrom:
      -----------------------------------------------------
      No.  Label        X            Y            Z        
      -----------------------------------------------------
       1   C1        -0.94624253   1.20352073   0.00012636
       2   C2         0.95377481   1.20766662  -0.00005251
       3   C3        -1.39107226   0.00154901   0.00006708
       4   C4         1.38837469  -0.01164589   0.00002935
       5   H5         1.30247315   2.21371281   0.00016345
       6   H6        -1.30214954   2.20789046   0.00019026
       7   C7        -0.67479538  -1.24597834  -0.00076881
       8   C8         0.67738782  -1.24774379   0.00021329
       9   H9        -1.21079687  -2.18657668  -0.00079202
      10   H10        1.20304609  -2.18414775   0.00082353
      -----------------------------------------------------
      Nuclear repulsion energy =  180.43509614

++    Wave function specifications:
      -----------------------------

      Number of closed shell electrons          28
      Number of electrons in active shells      12
      Max number of holes in RAS1 space          0
      Max nr of electrons in RAS3 space          0
      Number of inactive orbitals               14
      Number of active orbitals                 12
      Number of secondary orbitals              72
      Spin quantum number                      0.0
      State symmetry                             1
--

++    Orbital specifications:
      -----------------------

      Symmetry species                           1
                                                 a
      Frozen orbitals                            0
      Inactive orbitals                         14
      Active orbitals                           12
      RAS1 orbitals                              0
      RAS2 orbitals                             12
      RAS3 orbitals                              0
      Secondary orbitals                        72
      Deleted orbitals                           0
      Number of basis functions                 98
--

++    CI expansion specifications:
      ----------------------------

      Number of CSFs                        226512
      Number of determinants                427350
      Number of root(s) required                 1
      Root chosen for geometry opt.              1
      CI root used                               1
         
      highest root included in the CI            1
      max. size of the explicit Hamiltonian    200
--

++    Optimization specifications:
      ----------------------------

      RASSCF algorithm: Conventional
      Maximum number of macro iterations       200
      Maximum number of SX iterations          100
      Threshold for RASSCF energy            1.000E-08
      Threshold for max MO rotation          1.000E-01
      Threshold for max BLB element          1.000E-04
      Level shift parameter                  5.000E-01
      Make Quasi-Newton update
--

      The MO-coefficients are taken from the file:
      INPORB                                                                                                                                                                                                                                                          
      Title: RASSCF average (pseudo-natural) orbitals (Not final)                          

      Total molecular charge    0.00

      Molecular orbitals exchanged:
        In symmetry  1 :  13  15
        In symmetry  1 :  24  28
        In symmetry  1 :  26  31


      ************************************************************************************************************************
      *                                                                                                                      *
      *                                            Wave function control section                                             *
      *                                                                                                                      *
      ************************************************************************************************************************


                                         RASSCF iterations: Energy and convergence statistics
                                         ----------------------------------------------------

      Iter CI   SX   CI       RASSCF       Energy    max ROT     max BLB   max BLB  Level Ln srch  Step   QN   Walltime
          iter iter root      energy       change     param      element    value   shift minimum  type update hh:mm:ss
 Nr of preliminary CI iterations:   6
        1   1   10    1  -229.46844127    0.00E+00  -1.19E-01*  18  78 1  1.63E-02*  0.15   0.00    SX    NO    0:00:38
        2   3   10    1  -229.47158240   -3.14E-03* -1.09E-01*  18  78 1  3.35E-03*  0.15   0.00    SX    NO    0:00:18
        3   3   11    1  -229.47273307   -1.15E-03* -2.23E-01*  24  31 1 -3.42E-03*  0.15   0.00    SX    NO    0:00:18
        4   6   12    1  -229.47566253   -2.93E-03* -3.37E-01*  24  31 1 -6.79E-03*  0.15   0.00    SX    NO    0:00:26
        5   5   13    1  -229.48253128   -6.87E-03* -2.40E-01*  24  31 1 -8.96E-03*  0.15   2.50    LS   YES    0:00:22
        6   4   10    1  -229.48745524   -4.92E-03* -3.19E-01*  18  78 1 -8.56E-03*  0.15   2.50    QN   YES    0:00:19
        7   5   10    1  -229.49194869   -4.49E-03*  1.29E-01*  18  81 1 -4.46E-03*  0.15   1.39    QN   YES    0:00:22
        8   4   10    1  -229.49267458   -7.26E-04*  2.80E-02   18  90 1 -2.68E-03*  0.15   1.27    QN   YES    0:00:19
        9   4    9    1  -229.49280908   -1.35E-04*  1.45E-02   18  90 1 -8.17E-04*  0.15   1.54    LS   YES    0:00:19
       10   4    9    1  -229.49282881   -1.97E-05*  1.31E-02   17  27 1 -7.12E-04*  0.15   1.08    QN   YES    0:00:20
       11   5    8    1  -229.49285433   -2.55E-05*  8.19E-03   17  27 1 -4.80E-04*  0.15   1.64    LS   YES    0:00:23
       12   4    8    1  -229.49285926   -4.93E-06*  1.33E-03   18  90 1  5.78E-04*  0.15   1.08    QN   YES    0:00:21
       13   5    7    1  -229.49286148   -2.22E-06*  9.16E-04   17  27 1 -1.84E-04*  0.15   1.69    LS   YES    0:00:22
       14   4    7    1  -229.49286193   -4.56E-07*  8.54E-04   18  90 1 -1.19E-04*  0.15   1.02    QN   YES    0:00:20
       15   4    7    1  -229.49286208   -1.43E-07*  1.45E-04   18  90 1 -4.79E-05   0.15   1.19    QN   YES    0:00:20
       16   3    5    1  -229.49286210   -2.23E-08*  1.21E-04   14  27 1  1.58E-05   0.15   1.09    QN   YES    0:00:17
       17   1    5    1  -229.49286210   -2.43E-09  -2.88E-05   18  90 1  5.30E-06   0.15   1.11    QN   YES    0:00:11
      Convergence after 17 iterations
       18   1    5    1  -229.49286210   -3.90E-10  -2.88E-05   14  22 1 -1.37E-06   0.15   1.11    QN   YES    0:00:13

      ************************************************************************************************************************
                                                      Wave function printout:
                       occupation of active orbitals, and spin coupling of open shells (u,d: Spin up or down)
      ************************************************************************************************************************

      Note: transformation to natural orbitals
      has been made, which may change the order of the CSFs.

      printout of CI-coefficients larger than  0.05 for root  1
      energy=    -229.492862
      conf/sym  111111111111     Coeff  Weight
             1  222222000000   0.86835 0.75403
            38  222220200000  -0.31905 0.10179
            69  2222udu000d0   0.12749 0.01625
           104  22u22du0d000  -0.10735 0.01152
           123  2u222dud0000  -0.06599 0.00436
           178  222202000020  -0.07306 0.00534
           207  22u2d2ud0000  -0.05413 0.00293
           238  2u22d20u00d0   0.05984 0.00358
           355  220222020000  -0.05918 0.00350
           358  220222002000  -0.07369 0.00543
           378  2ud2220ud000  -0.09996 0.00999
           418  202222020000  -0.07157 0.00512
           421  202222002000  -0.05171 0.00267
           478  022222000002  -0.06023 0.00363
           485  2222uud000d0  -0.08075 0.00652

      Natural orbitals and occupation numbers for root  1
      sym 1:   1.984456   1.932286   1.921375   1.983269   1.931241   1.711925   0.293197   0.072167   0.076895   0.016874
               0.062365   0.013951

      ************************************************************************************************************************
      *                                                                                                                      *
      *                                                    Final results                                                     *
      *                                                                                                                      *
      ************************************************************************************************************************


++    Wave function specifications:
      -----------------------------

      Number of closed shell electrons          28
      Number of electrons in active shells      12
      Max number of holes in RAS1 space          0
      Max nr of electrons in RAS3 space          0
      Number of inactive orbitals               14
      Number of active orbitals                 12
      Number of secondary orbitals              72
      Spin quantum number                      0.0
      State symmetry                             1
--

++    Orbital specifications:
      -----------------------

      Symmetry species                           1
                                                 a
      Frozen orbitals                            0
      Inactive orbitals                         14
      Active orbitals                           12
      RAS1 orbitals                              0
      RAS2 orbitals                             12
      RAS3 orbitals                              0
      Secondary orbitals                        72
      Deleted orbitals                           0
      Number of basis functions                 98
--

++    CI expansion specifications:
      ----------------------------

      Number of CSFs                        226512
      Number of determinants                427350
      Number of root(s) required                 1
      CI root used                               1
      highest root included in the CI            1
      Root passed to geometry opt.               1
--

++    Final optimization conditions:
      ------------------------------

      Average CI energy                            -229.49286210
      RASSCF energy for state  1                   -229.49286210
      Super-CI energy                                -0.00000000
      RASSCF energy change                            0.00000000
      Max change in MO coefficients               4.561E-05
      Max non-diagonal density matrix element    -2.879E-05
      Maximum BLB matrix element                 -1.365E-06
      (orbital pair  14,  22 in symmetry   1)
      Norm of electronic gradient            6.306E-06
--


      Final state energy(ies):
      ------------------------

::    RASSCF root number  1 Total energy:   -229.49286210

++    Molecular orbitals:
      -------------------

      Pseudonatural active orbitals and approximate occupation numbers




      Molecular orbitals for symmetry species 1: a  


      Orbital                 1         2         3         4         5         6         7         8         9        10
      Energy           -11.2533  -11.2518  -11.2400  -11.2354  -11.2219  -11.2205   -1.0663   -0.9831   -0.8302   -0.7699
      Occ. No.           2.0000    2.0000    2.0000    2.0000    2.0000    2.0000    2.0000    2.0000    2.0000    2.0000

     1 C1     1s        -0.0003   -0.0016   -0.9938   -0.0096   -0.0022   -0.0622   -0.0525   -0.1725   -0.0001   -0.0039
     2 C1     2s         0.0000   -0.0001   -0.0272   -0.0006   -0.0002   -0.0018    0.1008    0.3295    0.0019    0.0094
     3 C1     *s        -0.0002    0.0019    0.0131    0.0033    0.0025    0.0092    0.0727    0.2659   -0.0094    0.0072
     4 C1     2px        0.0001    0.0001    0.0008   -0.0003   -0.0003    0.0006   -0.0316   -0.0983   -0.0107   -0.0084
     5 C1     *px        0.0000    0.0005    0.0008    0.0011    0.0003    0.0007   -0.0141   -0.0343   -0.0004    0.0051
     6 C1     2py        0.0000    0.0001   -0.0001    0.0000   -0.0001   -0.0001   -0.0502   -0.1113   -0.0330   -0.1243
     7 C1     *py        0.0002   -0.0012   -0.0017   -0.0010   -0.0011   -0.0047   -0.0037    0.0049   -0.0004   -0.0313
     8 C1     2pz       -0.0000   -0.0000    0.0000    0.0000   -0.0000   -0.0000   -0.0000   -0.0000   -0.0000   -0.0000
     9 C1     *pz        0.0000    0.0000    0.0000   -0.0000   -0.0000   -0.0000   -0.0000   -0.0000   -0.0000   -0.0000
    10 C1     *200      -0.0000   -0.0000    0.0015   -0.0001   -0.0000   -0.0001   -0.0007   -0.0028   -0.0012   -0.0029
    11 C1     *110      -0.0001   -0.0000   -0.0001   -0.0000    0.0000   -0.0001    0.0022    0.0052    0.0007    0.0029
    12 C1     *101       0.0000    0.0000   -0.0000    0.0000    0.0000    0.0000    0.0000    0.0000   -0.0000    0.0000
    13 C1     *020      -0.0000   -0.0001    0.0007   -0.0000   -0.0000   -0.0001    0.0037    0.0138   -0.0007   -0.0010
    14 C1     *011      -0.0000   -0.0000   -0.0000    0.0000    0.0000    0.0000    0.0000    0.0000   -0.0000    0.0000
    15 C1     *002       0.0000   -0.0000    0.0013   -0.0001   -0.0000   -0.0000   -0.0024   -0.0077    0.0003    0.0002
    16 C2     1s         0.0003    0.0003   -0.0093    0.9927    0.0750   -0.0052   -0.0095   -0.0171    0.0364    0.1279
    17 C2     2s         0.0000    0.0001    0.0001    0.0278    0.0018    0.0002    0.0162    0.0271   -0.0677   -0.2480
    18 C2     *s         0.0001   -0.0019   -0.0030   -0.0125   -0.0093   -0.0014   -0.0086    0.0349   -0.0331   -0.2228
    19 C2     2px       -0.0001    0.0000   -0.0003    0.0008    0.0006   -0.0004   -0.0116   -0.0043    0.0026   -0.0881
    20 C2     *px       -0.0001    0.0005    0.0011    0.0009    0.0009    0.0002   -0.0032    0.0075    0.0049   -0.0393
    21 C2     2py        0.0001   -0.0001   -0.0000   -0.0005    0.0006   -0.0001    0.0062    0.0257   -0.0585   -0.2811
    22 C2     *py        0.0000    0.0013    0.0010    0.0015    0.0048    0.0007    0.0118   -0.0110   -0.0475   -0.1429
    23 C2     2pz        0.0000   -0.0000    0.0000    0.0000   -0.0000   -0.0000    0.0000   -0.0000   -0.0000   -0.0000
    24 C2     *pz       -0.0000    0.0000   -0.0000   -0.0000   -0.0000   -0.0000    0.0000   -0.0000   -0.0000   -0.0000
    25 C2     *200      -0.0000    0.0000    0.0001   -0.0015    0.0001   -0.0000   -0.0002    0.0033    0.0017    0.0014
    26 C2     *110       0.0001   -0.0000   -0.0000   -0.0001   -0.0001    0.0000    0.0025    0.0014   -0.0052   -0.0121
    27 C2     *101      -0.0000   -0.0000   -0.0000    0.0000    0.0000   -0.0000    0.0000    0.0000   -0.0000   -0.0000
    28 C2     *020      -0.0001    0.0001    0.0000   -0.0007    0.0000    0.0000    0.0019    0.0005   -0.0063   -0.0172
    29 C2     *011       0.0000    0.0000    0.0000    0.0000    0.0000    0.0000   -0.0000    0.0000   -0.0000   -0.0000
    30 C2     *002       0.0000    0.0000    0.0001   -0.0014    0.0000    0.0000   -0.0007   -0.0014    0.0017    0.0060
    31 C3     1s        -0.0073   -0.0085   -0.0608    0.0006    0.0512    0.9933   -0.0441   -0.1199   -0.0112   -0.0314
    32 C3     2s         0.0000    0.0001   -0.0014    0.0002    0.0017    0.0262    0.0798    0.2269    0.0176    0.0598
    33 C3     *s        -0.0017   -0.0059   -0.0058   -0.0020   -0.0034   -0.0188    0.0357    0.1611    0.0158    0.0426
    34 C3     2px        0.0002    0.0002    0.0005   -0.0001    0.0002    0.0011    0.0254    0.0388    0.0136    0.0334
    35 C3     *px       -0.0004   -0.0019   -0.0009   -0.0008   -0.0010   -0.0042   -0.0007    0.0078    0.0168    0.0090
    36 C3     2py       -0.0003   -0.0005    0.0004   -0.0001    0.0001    0.0020    0.0711    0.2203    0.0102    0.0662
    37 C3     *py        0.0008    0.0006   -0.0022   -0.0002   -0.0002   -0.0007    0.0199    0.0235    0.0215    0.0054
    38 C3     2pz       -0.0000   -0.0000    0.0000   -0.0000    0.0000   -0.0000    0.0000   -0.0000    0.0000   -0.0000
    39 C3     *pz       -0.0000    0.0000    0.0000    0.0000    0.0000    0.0000   -0.0000   -0.0000    0.0000   -0.0000
    40 C3     *200       0.0001    0.0002    0.0003    0.0000   -0.0001   -0.0014   -0.0001   -0.0043   -0.0000    0.0005
    41 C3     *110      -0.0001   -0.0002    0.0000   -0.0000   -0.0000    0.0001   -0.0004    0.0104   -0.0017    0.0049
    42 C3     *101      -0.0000    0.0000    0.0000    0.0000    0.0000    0.0000   -0.0000   -0.0000   -0.0000   -0.0000
    43 C3     *020       0.0002    0.0003    0.0001    0.0000   -0.0000   -0.0007    0.0036    0.0070    0.0034    0.0003
    44 C3     *011       0.0000    0.0000    0.0000   -0.0000    0.0000    0.0000   -0.0000   -0.0000    0.0000   -0.0000
    45 C3     *002       0.0001    0.0001    0.0002   -0.0000   -0.0000   -0.0013   -0.0025   -0.0045   -0.0013   -0.0014
    46 C4     1s        -0.0106    0.0102   -0.0017    0.0735   -0.9914    0.0509   -0.0630    0.0189    0.0983   -0.0172
    47 C4     2s        -0.0003    0.0003   -0.0002    0.0020   -0.0282    0.0013    0.1198   -0.0355   -0.1920    0.0384
    48 C4     *s        -0.0028    0.0058    0.0018    0.0057    0.0175    0.0017    0.0735   -0.0407   -0.1647   -0.0070
    49 C4     2px       -0.0001    0.0001   -0.0001    0.0004    0.0019   -0.0002   -0.0629    0.0253    0.0629   -0.0566
    50 C4     *px        0.0007   -0.0019   -0.0007   -0.0009   -0.0041   -0.0007   -0.0175    0.0159    0.0275   -0.0088
    51 C4     2py       -0.0002    0.0001   -0.0000    0.0004   -0.0008   -0.0000   -0.1150    0.0357    0.1819   -0.0273
    52 C4     *py        0.0009   -0.0006    0.0002    0.0023    0.0009    0.0001   -0.0155   -0.0054    0.0426    0.0005
    53 C4     2pz       -0.0000   -0.0000    0.0000    0.0000   -0.0000    0.0000    0.0000   -0.0000   -0.0000   -0.0000
    54 C4     *pz        0.0000    0.0000   -0.0000    0.0000   -0.0000    0.0000    0.0000    0.0000   -0.0000    0.0000
    55 C4     *200       0.0001   -0.0002    0.0000   -0.0003    0.0014   -0.0001    0.0010   -0.0004    0.0019    0.0028
    56 C4     *110       0.0001   -0.0002   -0.0000    0.0000   -0.0000   -0.0000    0.0112   -0.0030   -0.0107   -0.0039
    57 C4     *101      -0.0000   -0.0000    0.0000   -0.0000    0.0000   -0.0000   -0.0000    0.0000    0.0000    0.0000
    58 C4     *020       0.0003   -0.0003   -0.0000   -0.0001    0.0006   -0.0001    0.0055   -0.0020   -0.0081   -0.0005
    59 C4     *011      -0.0000    0.0000    0.0000    0.0000    0.0000    0.0000   -0.0000    0.0000    0.0000   -0.0000
    60 C4     *002       0.0001   -0.0001    0.0000   -0.0002    0.0014   -0.0001   -0.0035    0.0013    0.0041   -0.0011
    61 H5     1s         0.0000   -0.0001    0.0000   -0.0006    0.0001   -0.0001    0.0131    0.0250   -0.0681   -0.2803
    62 H5     *s        -0.0000   -0.0004   -0.0004    0.0017   -0.0006   -0.0002    0.0113    0.0196   -0.0395   -0.1423
    63 H6     1s         0.0000    0.0001    0.0004   -0.0000    0.0001   -0.0001    0.0221    0.1023   -0.0155   -0.0586
    64 H6     *s        -0.0001    0.0004   -0.0019    0.0003    0.0002    0.0007   -0.0019    0.0164   -0.0145   -0.0405
    65 C7     1s        -0.6543   -0.7506    0.0022    0.0004   -0.0013   -0.0109   -0.1081    0.0350   -0.1240    0.0331
    66 C7     2s        -0.0178   -0.0209    0.0000   -0.0000    0.0001   -0.0015    0.2048   -0.0692    0.2448   -0.0661
    67 C7     *s         0.0051    0.0155    0.0008    0.0014    0.0035    0.0060    0.1377   -0.0729    0.1957   -0.0768
    68 C7     2px       -0.0000   -0.0003    0.0001    0.0000    0.0001    0.0012    0.1481   -0.0351    0.0308    0.0276
    69 C7     *px       -0.0010    0.0026    0.0006    0.0005    0.0009    0.0013    0.0354    0.0151   -0.0063    0.0199
    70 C7     2py        0.0001    0.0001   -0.0001    0.0000    0.0001   -0.0021   -0.0465    0.0174   -0.1561    0.0611
    71 C7     *py        0.0004    0.0030    0.0002    0.0007    0.0011    0.0025   -0.0273   -0.0052   -0.0893    0.0252
    72 C7     2pz       -0.0000   -0.0000    0.0000    0.0000    0.0000   -0.0000    0.0001   -0.0000    0.0001    0.0000
    73 C7     *pz        0.0000    0.0000    0.0000    0.0000    0.0000    0.0000    0.0000   -0.0000    0.0000    0.0000
    74 C7     *200       0.0007    0.0005    0.0000    0.0000   -0.0001   -0.0003    0.0086   -0.0037    0.0032   -0.0009
    75 C7     *110       0.0000    0.0001   -0.0000   -0.0000    0.0000    0.0005    0.0061   -0.0027    0.0085   -0.0035
    76 C7     *101       0.0000   -0.0000    0.0000    0.0000   -0.0000    0.0000    0.0000   -0.0000    0.0000    0.0000
    77 C7     *020       0.0008    0.0007   -0.0000   -0.0000   -0.0000   -0.0003   -0.0001    0.0031    0.0063   -0.0013
    78 C7     *011      -0.0000    0.0000    0.0000    0.0000    0.0000   -0.0000    0.0000    0.0000   -0.0000    0.0000
    79 C7     *002       0.0009    0.0010    0.0000   -0.0000    0.0000   -0.0001   -0.0052    0.0012   -0.0054    0.0013
    80 C8     1s        -0.7500    0.6547   -0.0008   -0.0011    0.0152   -0.0008   -0.1677    0.0608    0.0478   -0.0110
    81 C8     2s        -0.0206    0.0185    0.0001   -0.0002    0.0007    0.0001    0.3255   -0.1166   -0.0978    0.0212
    82 C8     *s         0.0071   -0.0147   -0.0014   -0.0010   -0.0070   -0.0026    0.2353   -0.1007   -0.0856    0.0176
    83 C8     2px       -0.0001   -0.0000   -0.0000   -0.0001    0.0002   -0.0003   -0.0674    0.0086   -0.2592    0.0305
    84 C8     *px        0.0006    0.0028    0.0005    0.0006    0.0010    0.0006    0.0029   -0.0006   -0.0919    0.0076
    85 C8     2py       -0.0002    0.0002    0.0000   -0.0002    0.0005   -0.0000    0.0396    0.0042   -0.1533    0.0388
    86 C8     *py        0.0008   -0.0029   -0.0006   -0.0004   -0.0033   -0.0007    0.0038    0.0078   -0.0249    0.0082
    87 C8     2pz        0.0000   -0.0000    0.0000    0.0000   -0.0000    0.0000   -0.0001    0.0000   -0.0001    0.0000
    88 C8     *pz       -0.0000    0.0000    0.0000    0.0000    0.0000    0.0000    0.0000    0.0000   -0.0000    0.0000
    89 C8     *200       0.0008   -0.0004   -0.0000   -0.0000    0.0003    0.0001    0.0077   -0.0024    0.0055   -0.0015
    90 C8     *110      -0.0000    0.0001   -0.0000   -0.0000    0.0004    0.0001    0.0019    0.0014   -0.0053    0.0004
    91 C8     *101      -0.0000    0.0000   -0.0000   -0.0000   -0.0000    0.0000    0.0000   -0.0000    0.0000   -0.0000
    92 C8     *020       0.0009   -0.0005    0.0000    0.0000    0.0003    0.0000    0.0043   -0.0025   -0.0108    0.0035
    93 C8     *011       0.0000    0.0000    0.0000    0.0000   -0.0000    0.0000   -0.0000    0.0000    0.0000   -0.0000
    94 C8     *002       0.0011   -0.0008    0.0000   -0.0000    0.0001   -0.0000   -0.0079    0.0029    0.0027   -0.0008
    95 H9     1s         0.0001    0.0001    0.0001   -0.0000    0.0000    0.0004    0.0631   -0.0194    0.1633   -0.0621
    96 H9     *s        -0.0013   -0.0009    0.0001    0.0001    0.0001    0.0012    0.0199    0.0039    0.0641   -0.0258
    97 H10    1s         0.0002   -0.0001   -0.0000   -0.0000   -0.0001   -0.0002    0.0801   -0.0455   -0.0399    0.0040
    98 H10    *s        -0.0013    0.0006   -0.0002    0.0000   -0.0009   -0.0002    0.0007   -0.0157   -0.0097    0.0061


      Orbital                11        12        13        14        15        16        17        18        19        20
      Energy            -0.6851   -0.6446   -0.6127   -0.4185   -0.7273    0.0000    0.0019    0.0018    0.0783   -0.0000
      Occ. No.           2.0000    2.0000    2.0000    2.0000    1.9845    1.9323    1.9214    1.9833    1.9312    1.7119

     1 C1     1s        -0.0564   -0.0058   -0.0015    0.0000    0.0211    0.0004   -0.0000    0.0004   -0.0485   -0.0514
     2 C1     2s         0.1120    0.0133    0.0040   -0.0000   -0.0439   -0.0008    0.0001   -0.0055    0.0964    0.1218
     3 C1     *s         0.1188    0.0056   -0.0015   -0.0001   -0.0685   -0.0010    0.0000    0.0082    0.1248    0.1066
     4 C1     2px       -0.0441   -0.0169   -0.0129   -0.0000    0.0699   -0.0027    0.0001    0.0284    0.3163    0.1492
     5 C1     *px       -0.0203   -0.0162   -0.0121    0.0000    0.0375   -0.0016    0.0001    0.0084    0.1829    0.1277
     6 C1     2py        0.3763    0.1560    0.0877    0.0000    0.0630    0.0001    0.0000    0.0071   -0.0098   -0.0491
     7 C1     *py        0.1645    0.0673    0.0391    0.0000    0.0396    0.0000    0.0000   -0.0151   -0.0081    0.0769
     8 C1     2pz        0.0001    0.0000    0.0000   -0.0295   -0.0000   -0.3038   -0.2744    0.0000   -0.0024   -0.0000
     9 C1     *pz        0.0000    0.0000    0.0000   -0.0458   -0.0000   -0.2249   -0.1897    0.0000   -0.0018   -0.0000
    10 C1     *200      -0.0008    0.0000   -0.0009   -0.0000   -0.0015   -0.0001    0.0000    0.0026    0.0073   -0.0089
    11 C1     *110      -0.0194   -0.0084   -0.0047   -0.0000   -0.0073    0.0001   -0.0000   -0.0036   -0.0060   -0.0099
    12 C1     *101      -0.0000   -0.0000   -0.0000   -0.0009    0.0000   -0.0011    0.0103   -0.0000   -0.0000    0.0000
    13 C1     *020       0.0124    0.0036    0.0039    0.0000    0.0027    0.0000   -0.0000   -0.0012   -0.0024    0.0071
    14 C1     *011       0.0000    0.0000    0.0000   -0.0038    0.0000    0.0107    0.0152    0.0000    0.0001    0.0000
    15 C1     *002      -0.0029   -0.0006   -0.0005    0.0000    0.0008    0.0000   -0.0000   -0.0005   -0.0012    0.0004
    16 C2     1s         0.0394    0.0114   -0.0013    0.0000   -0.0031    0.0003   -0.0000   -0.1316   -0.0420    0.0498
    17 C2     2s        -0.0765   -0.0235    0.0057   -0.0000    0.0063   -0.0006    0.0000    0.2553    0.0830   -0.1194
    18 C2     *s        -0.0705   -0.0381    0.0010    0.0000    0.0073   -0.0009    0.0001    0.1945    0.1057   -0.0957
    19 C2     2px       -0.0276   -0.0196    0.0311   -0.0000   -0.0070    0.0027   -0.0002    0.0662   -0.3237    0.1512
    20 C2     *px       -0.0111   -0.0070    0.0235    0.0000   -0.0013    0.0016   -0.0001    0.0179   -0.1839    0.1284
    21 C2     2py       -0.0918   -0.0243    0.0234    0.0000   -0.0081   -0.0000   -0.0000   -0.3413    0.0033    0.0488
    22 C2     *py       -0.0565   -0.0064    0.0085    0.0000   -0.0072    0.0001   -0.0000   -0.0931   -0.0015   -0.0796
    23 C2     2pz       -0.0000    0.0000    0.0000   -0.0238   -0.0000   -0.3305    0.2483    0.0000   -0.0030    0.0000
    24 C2     *pz       -0.0000    0.0000    0.0000   -0.0421    0.0000   -0.2393    0.1677    0.0000   -0.0021   -0.0000
    25 C2     *200       0.0021   -0.0012    0.0005   -0.0000    0.0008   -0.0001    0.0000   -0.0028    0.0075    0.0089
    26 C2     *110      -0.0089   -0.0009   -0.0006    0.0000   -0.0013   -0.0001    0.0000   -0.0156    0.0071   -0.0101
    27 C2     *101      -0.0000   -0.0000    0.0000    0.0012    0.0000    0.0002    0.0102    0.0000   -0.0000    0.0000
    28 C2     *020      -0.0066    0.0015   -0.0002    0.0000   -0.0009    0.0000   -0.0000    0.0026   -0.0023   -0.0068
    29 C2     *011      -0.0000   -0.0000    0.0000   -0.0043    0.0000    0.0124   -0.0143   -0.0000    0.0001   -0.0000
    30 C2     *002       0.0020    0.0002   -0.0002   -0.0000   -0.0001    0.0000   -0.0000   -0.0053   -0.0011   -0.0004
    31 C3     1s         0.0605    0.0334    0.0184   -0.0000   -0.1043   -0.0004    0.0001    0.0105    0.0535    0.0550
    32 C3     2s        -0.1189   -0.0682   -0.0355    0.0000    0.2260    0.0009   -0.0002   -0.0213   -0.1157   -0.1162
    33 C3     *s        -0.0359   -0.0356   -0.0283   -0.0001    0.1759    0.0008   -0.0002   -0.0334   -0.1353   -0.0796
    34 C3     2px       -0.0760   -0.0203    0.0320    0.0000    0.1188   -0.0013    0.0001    0.0023    0.1507    0.3603
    35 C3     *px       -0.0062   -0.0006    0.0027    0.0000    0.0426   -0.0008    0.0000   -0.0018    0.0798    0.3077
    36 C3     2py       -0.1264   -0.0655   -0.0319   -0.0001   -0.3506    0.0003    0.0001   -0.0099   -0.0234    0.0367
    37 C3     *py       -0.0292   -0.0012   -0.0146    0.0001   -0.0765    0.0001    0.0001   -0.0104    0.0026    0.0417
    38 C3     2pz       -0.0000    0.0000    0.0000    0.0773   -0.0002   -0.2172   -0.3215    0.0000   -0.0016   -0.0000
    39 C3     *pz        0.0000   -0.0000    0.0000    0.0224   -0.0001   -0.1333   -0.2104    0.0000   -0.0010   -0.0001
    40 C3     *200      -0.0021    0.0012    0.0044    0.0000   -0.0002   -0.0000    0.0000    0.0006    0.0055    0.0042
    41 C3     *110      -0.0102   -0.0088   -0.0095   -0.0000   -0.0188   -0.0001    0.0000    0.0003    0.0106    0.0048
    42 C3     *101       0.0000   -0.0000   -0.0000    0.0084   -0.0000   -0.0078   -0.0101    0.0000   -0.0001   -0.0000
    43 C3     *020      -0.0010   -0.0002   -0.0052    0.0000    0.0062    0.0000   -0.0000   -0.0009   -0.0048    0.0010
    44 C3     *011       0.0000    0.0000   -0.0000   -0.0127    0.0000   -0.0160   -0.0095   -0.0000   -0.0001   -0.0000
    45 C3     *002       0.0029    0.0008    0.0007   -0.0000   -0.0052    0.0000    0.0000    0.0004    0.0000   -0.0014
    46 C4     1s         0.0047   -0.0551    0.0629   -0.0000    0.0049   -0.0005    0.0001   -0.1197    0.0543   -0.0514
    47 C4     2s        -0.0067    0.1110   -0.1274    0.0000   -0.0100    0.0010   -0.0001    0.2276   -0.1170    0.1075
    48 C4     *s        -0.0186    0.0714   -0.1034    0.0001   -0.0158    0.0014   -0.0002    0.1308   -0.1313    0.0664
    49 C4     2px        0.0143   -0.0850    0.0260   -0.0001    0.0219    0.0013   -0.0002   -0.0511   -0.1580    0.3616
    50 C4     *px        0.0064   -0.0116    0.0084   -0.0000    0.0157    0.0006   -0.0001   -0.0063   -0.0859    0.3105
    51 C4     2py        0.0190   -0.0988    0.1168   -0.0000    0.0207    0.0003    0.0000    0.3551   -0.0442   -0.0384
    52 C4     *py        0.0162   -0.0386    0.0420   -0.0001    0.0060   -0.0001    0.0000    0.0563    0.0009   -0.0463
    53 C4     2pz       -0.0000   -0.0000   -0.0000    0.0887   -0.0000   -0.2462    0.2976   -0.0000   -0.0023    0.0000
    54 C4     *pz       -0.0000    0.0000   -0.0000    0.0289   -0.0000   -0.1535    0.1976    0.0000   -0.0014    0.0000
    55 C4     *200      -0.0012    0.0035    0.0029    0.0000   -0.0008   -0.0000    0.0000   -0.0038    0.0056   -0.0040
    56 C4     *110      -0.0047    0.0092   -0.0000    0.0000   -0.0031    0.0001   -0.0000   -0.0194   -0.0094    0.0048
    57 C4     *101       0.0000    0.0000    0.0000   -0.0090    0.0000    0.0085   -0.0090    0.0000    0.0001    0.0000
    58 C4     *020       0.0009   -0.0015   -0.0041   -0.0000    0.0003    0.0000   -0.0000    0.0039   -0.0043   -0.0009
    59 C4     *011      -0.0000    0.0000    0.0000   -0.0129    0.0000   -0.0175    0.0090    0.0000   -0.0002    0.0000
    60 C4     *002       0.0003   -0.0020    0.0018    0.0000    0.0001   -0.0000   -0.0000   -0.0048    0.0001    0.0013
    61 H5     1s        -0.0976   -0.0200    0.0174    0.0000   -0.0071    0.0003   -0.0000   -0.0692   -0.0336   -0.0142
    62 H5     *s        -0.0570   -0.0004    0.0053    0.0000   -0.0087    0.0003   -0.0000   -0.0891   -0.0430    0.0250
    63 H6     1s         0.2670    0.0960    0.0587    0.0000    0.0144    0.0003   -0.0000   -0.0008   -0.0359    0.0146
    64 H6     *s         0.1571    0.0603    0.0436    0.0000    0.0282    0.0004   -0.0000    0.0091   -0.0469   -0.0258
    65 C7     1s         0.0063   -0.0465    0.0086    0.0000   -0.0800   -0.0001   -0.0000    0.0025    0.0080   -0.0225
    66 C7     2s        -0.0103    0.0955   -0.0115   -0.0001    0.1664    0.0001    0.0000   -0.0023   -0.0175    0.0582
    67 C7     *s        -0.0027    0.0711   -0.0406   -0.0001    0.1286    0.0003   -0.0000   -0.0253   -0.0221    0.0362
    68 C7     2px       -0.0719    0.0408    0.3441   -0.0002   -0.2087    0.0001    0.0000    0.0096   -0.0168    0.0116
    69 C7     *px       -0.0446    0.0002    0.1380   -0.0002   -0.0806    0.0001    0.0000   -0.0060   -0.0132    0.0162
    70 C7     2py       -0.0401    0.0086    0.2406   -0.0001    0.3258    0.0001    0.0000   -0.0112   -0.0224    0.0297
    71 C7     *py       -0.0072   -0.0406    0.1417    0.0000    0.1289    0.0003   -0.0000   -0.0024   -0.0129   -0.0653
    72 C7     2pz       -0.0000   -0.0000    0.0002    0.3683   -0.0000    0.0560   -0.0938   -0.0000    0.0005    0.0001
    73 C7     *pz       -0.0000   -0.0000    0.0001    0.2853   -0.0000    0.0777   -0.0681   -0.0000    0.0007    0.0000
    74 C7     *200       0.0001    0.0020    0.0060   -0.0000   -0.0029    0.0000   -0.0000   -0.0005   -0.0021   -0.0068
    75 C7     *110      -0.0015    0.0145   -0.0183    0.0000   -0.0223   -0.0000    0.0000   -0.0025    0.0050    0.0047
    76 C7     *101      -0.0000   -0.0000    0.0000    0.0221   -0.0000    0.0073    0.0091    0.0000    0.0001    0.0000
    77 C7     *020      -0.0015   -0.0008   -0.0148   -0.0000    0.0074   -0.0000    0.0000   -0.0002    0.0028    0.0063
    78 C7     *011      -0.0000    0.0000    0.0000    0.0036    0.0000   -0.0078   -0.0104   -0.0000   -0.0001    0.0000
    79 C7     *002       0.0006   -0.0017    0.0015    0.0000   -0.0046   -0.0000   -0.0000    0.0003   -0.0001    0.0004
    80 C8     1s        -0.0174    0.0367   -0.0380   -0.0000    0.0205   -0.0000   -0.0000    0.0245    0.0033    0.0224
    81 C8     2s         0.0311   -0.0707    0.0785    0.0001   -0.0466    0.0001    0.0000   -0.0538   -0.0069   -0.0579
    82 C8     *s         0.0619   -0.0737    0.0490   -0.0000   -0.0305   -0.0001    0.0000   -0.0678   -0.0126   -0.0340
    83 C8     2px        0.0938   -0.1582   -0.2812   -0.0003    0.0724   -0.0002   -0.0001   -0.0515    0.0228    0.0032
    84 C8     *px        0.0331   -0.0807   -0.0976   -0.0002    0.0317   -0.0002   -0.0001   -0.0491    0.0167    0.0126
    85 C8     2py       -0.1217    0.3774   -0.0767    0.0002   -0.0232    0.0001    0.0000   -0.0813   -0.0066   -0.0342
    86 C8     *py       -0.0521    0.1965   -0.0574    0.0001   -0.0276   -0.0001    0.0000   -0.0458   -0.0054    0.0649
    87 C8     2pz        0.0001   -0.0003   -0.0001    0.3730    0.0000    0.0461    0.0870    0.0000    0.0003    0.0000
    88 C8     *pz        0.0000   -0.0001   -0.0000    0.2884   -0.0000    0.0716    0.0644   -0.0000    0.0006    0.0000
    89 C8     *200      -0.0011    0.0018    0.0059    0.0000    0.0001    0.0000   -0.0000   -0.0014   -0.0024    0.0073
    90 C8     *110      -0.0070    0.0264   -0.0167    0.0000   -0.0119    0.0000   -0.0000   -0.0040   -0.0036    0.0049
    91 C8     *101       0.0000   -0.0000    0.0000   -0.0216   -0.0000   -0.0084    0.0094    0.0000   -0.0001   -0.0000
    92 C8     *020       0.0054   -0.0095   -0.0075    0.0000    0.0011   -0.0000    0.0000    0.0031    0.0031   -0.0069
    93 C8     *011      -0.0000    0.0000   -0.0000    0.0041   -0.0000   -0.0089    0.0098    0.0000   -0.0001    0.0000
    94 C8     *002      -0.0011    0.0020   -0.0008   -0.0000    0.0003    0.0000    0.0000    0.0005   -0.0003   -0.0004
    95 H9     1s         0.0251    0.0366   -0.2499    0.0001   -0.0550   -0.0002    0.0000   -0.0037    0.0219    0.0187
    96 H9     *s         0.0039    0.0129   -0.1771    0.0001   -0.0702   -0.0001    0.0000   -0.0104    0.0302   -0.0077
    97 H10    1s         0.1076   -0.2824   -0.0000   -0.0001    0.0355   -0.0002    0.0000    0.0193    0.0180   -0.0206
    98 H10    *s         0.0722   -0.1777   -0.0097   -0.0001    0.0494   -0.0003   -0.0000    0.0377    0.0242    0.0047


      Orbital                21        22        23        24        25        26
      Energy            -0.0000    0.0020    0.0642    0.0177    0.0087   -0.0079
      Occ. No.           0.2932    0.0722    0.0769    0.0169    0.0624    0.0140

     1 C1     1s         0.0018    0.0000   -0.0000   -0.0009    0.0657    0.0156
     2 C1     2s        -0.0089   -0.0001    0.0000   -0.0235   -0.2292   -0.0015
     3 C1     *s        -0.0655   -0.0002    0.0002    0.1135   -0.3212   -0.1476
     4 C1     2px       -0.2421   -0.0003    0.0001   -0.0165   -0.5468   -0.1224
     5 C1     *px       -0.1821   -0.0002    0.0001   -0.0043   -0.3785   -0.1062
     6 C1     2py       -0.0413   -0.0000    0.0001   -0.0047   -0.0099   -0.0051
     7 C1     *py        0.0363   -0.0000    0.0000   -0.1073   -0.0052    0.1263
     8 C1     2pz        0.0002    0.3649   -0.4728    0.0000   -0.0003    0.0001
     9 C1     *pz        0.0001    0.2030   -0.2799   -0.0000   -0.0001    0.0001
    10 C1     *200      -0.0138    0.0000   -0.0000    0.0023   -0.0014   -0.0160
    11 C1     *110      -0.0077    0.0000   -0.0000    0.0019    0.0096   -0.0190
    12 C1     *101       0.0000    0.0078   -0.0348   -0.0000   -0.0000    0.0000
    13 C1     *020       0.0133    0.0000    0.0000    0.0011    0.0132    0.0021
    14 C1     *011      -0.0000   -0.0022   -0.0092   -0.0000   -0.0000    0.0000
    15 C1     *002       0.0002    0.0000    0.0000   -0.0022    0.0015    0.0109
    16 C2     1s         0.0003   -0.0001    0.0000    0.1261   -0.0682   -0.0105
    17 C2     2s        -0.0041    0.0002   -0.0000   -0.7865    0.2605    0.0584
    18 C2     *s        -0.0535    0.0002   -0.0002   -0.6944    0.3171    0.0993
    19 C2     2px        0.2427   -0.0003    0.0002   -0.2859   -0.5815   -0.0405
    20 C2     *px        0.1690   -0.0002    0.0002   -0.1612   -0.3571   -0.0240
    21 C2     2py       -0.0426    0.0000   -0.0000    0.7153   -0.0142   -0.0263
    22 C2     *py        0.0364   -0.0000    0.0000    0.3707   -0.0012   -0.0382
    23 C2     2pz       -0.0000   -0.6121   -0.2129   -0.0001    0.0003   -0.0001
    24 C2     *pz       -0.0000   -0.2630   -0.0935   -0.0000    0.0002   -0.0000
    25 C2     *200      -0.0132   -0.0000   -0.0000    0.0390   -0.0033   -0.0068
    26 C2     *110       0.0062    0.0000   -0.0000    0.0198    0.0199    0.0045
    27 C2     *101      -0.0000    0.0157    0.0210    0.0000    0.0000   -0.0000
    28 C2     *020       0.0120   -0.0000    0.0000    0.0402   -0.0130   -0.0011
    29 C2     *011       0.0000    0.0141   -0.0020    0.0000   -0.0000    0.0000
    30 C2     *002       0.0006    0.0000    0.0000    0.0183   -0.0028   -0.0004
    31 C3     1s         0.0418    0.0000   -0.0001   -0.0002    0.0202   -0.1157
    32 C3     2s        -0.1197   -0.0002    0.0003    0.0090   -0.1144    0.6762
    33 C3     *s        -0.1518   -0.0002    0.0001   -0.1706   -0.0904    0.4959
    34 C3     2px        0.4169    0.0000    0.0001    0.0428    0.2466    0.3903
    35 C3     *px        0.2846   -0.0000    0.0001   -0.0651    0.1155    0.2858
    36 C3     2py        0.0736    0.0002   -0.0003   -0.0245    0.0849   -0.7509
    37 C3     *py        0.0295    0.0001   -0.0002   -0.0370    0.0284   -0.1013
    38 C3     2pz       -0.0000   -0.2162    0.5676    0.0000    0.0003   -0.0007
    39 C3     *pz        0.0000   -0.1353    0.3405    0.0000    0.0002   -0.0003
    40 C3     *200      -0.0114    0.0000   -0.0000   -0.0049   -0.0156   -0.0583
    41 C3     *110      -0.0073   -0.0000    0.0000   -0.0006   -0.0210   -0.0346
    42 C3     *101       0.0000    0.0108   -0.0271    0.0000   -0.0000    0.0000
    43 C3     *020       0.0131    0.0000   -0.0000    0.0027    0.0192    0.0237
    44 C3     *011       0.0000    0.0191   -0.0142    0.0000   -0.0000    0.0001
    45 C3     *002       0.0020   -0.0000    0.0000    0.0009    0.0044   -0.0426
    46 C4     1s         0.0401    0.0000    0.0000   -0.1264   -0.0139   -0.0023
    47 C4     2s        -0.1131    0.0000   -0.0001    0.7094    0.0867   -0.0018
    48 C4     *s        -0.1364   -0.0001    0.0001    0.8527    0.0477   -0.1005
    49 C4     2px       -0.4163    0.0002   -0.0002   -0.2224    0.2823   -0.0037
    50 C4     *px       -0.2882    0.0001   -0.0001   -0.2950    0.1210    0.0382
    51 C4     2py        0.0656    0.0000    0.0001    0.7413   -0.0561   -0.0567
    52 C4     *py        0.0280    0.0000    0.0000    0.3127   -0.0309   -0.0264
    53 C4     2pz       -0.0001    0.4943    0.3534   -0.0000   -0.0002    0.0001
    54 C4     *pz       -0.0001    0.2681    0.2027   -0.0000   -0.0001    0.0000
    55 C4     *200      -0.0110    0.0000   -0.0000   -0.0246    0.0154    0.0034
    56 C4     *110       0.0035    0.0000    0.0000   -0.0120   -0.0124   -0.0000
    57 C4     *101      -0.0000    0.0180    0.0136    0.0000   -0.0000    0.0000
    58 C4     *020       0.0126   -0.0000    0.0000   -0.0372   -0.0183   -0.0022
    59 C4     *011      -0.0000    0.0017    0.0135    0.0000    0.0000    0.0000
    60 C4     *002       0.0018   -0.0000   -0.0000   -0.0171   -0.0043    0.0014
    61 H5     1s         0.0561   -0.0000   -0.0000    0.0606   -0.0253    0.0045
    62 H5     *s         0.0400   -0.0000   -0.0000    0.0070   -0.0179    0.0108
    63 H6     1s         0.0583    0.0000    0.0000   -0.0064    0.0287    0.0219
    64 H6     *s         0.0427    0.0000    0.0000    0.0173    0.0289   -0.0355
    65 C7     1s        -0.0057   -0.0001    0.0000    0.0110   -0.0240    0.1150
    66 C7     2s         0.0181    0.0001   -0.0000   -0.0426    0.0644   -0.5052
    67 C7     *s         0.0093    0.0001    0.0001    0.0555    0.0340   -0.6102
    68 C7     2px       -0.1207    0.0000    0.0001   -0.0178   -0.0369    0.3899
    69 C7     *px       -0.0927   -0.0000    0.0002    0.0045   -0.0631    0.0289
    70 C7     2py        0.0505    0.0001   -0.0001   -0.0255    0.0781   -0.6240
    71 C7     *py       -0.0096    0.0001    0.0001    0.0657    0.0484   -0.3663
    72 C7     2pz       -0.0001   -0.0925   -0.0886   -0.0001    0.0001    0.0000
    73 C7     *pz       -0.0000   -0.0529   -0.1403   -0.0000   -0.0000   -0.0002
    74 C7     *200      -0.0058   -0.0000    0.0000    0.0019   -0.0044    0.0272
    75 C7     *110       0.0049   -0.0000    0.0000   -0.0015   -0.0043    0.0582
    76 C7     *101      -0.0000    0.0034   -0.0172   -0.0000   -0.0000   -0.0000
    77 C7     *020       0.0074    0.0000   -0.0000   -0.0007    0.0018   -0.0164
    78 C7     *011       0.0000   -0.0055    0.0090    0.0000    0.0000    0.0000
    79 C7     *002      -0.0005   -0.0000    0.0000   -0.0002   -0.0023    0.0372
    80 C8     1s        -0.0046    0.0000    0.0000    0.0168    0.0178   -0.0119
    81 C8     2s         0.0137   -0.0000   -0.0000   -0.0178   -0.0387    0.0220
    82 C8     *s         0.0051    0.0001   -0.0002   -0.1656   -0.0091    0.1599
    83 C8     2px        0.1139   -0.0000    0.0001   -0.0285   -0.0151   -0.0494
    84 C8     *px        0.0844   -0.0001    0.0002    0.0319   -0.0579   -0.0753
    85 C8     2py        0.0416    0.0000   -0.0000   -0.0574   -0.0444    0.0131
    86 C8     *py       -0.0202    0.0000   -0.0002   -0.1452   -0.0335    0.0992
    87 C8     2pz        0.0000    0.0318   -0.1097    0.0000   -0.0000   -0.0002
    88 C8     *pz        0.0000   -0.0255   -0.1378    0.0000   -0.0001   -0.0001
    89 C8     *200      -0.0063   -0.0000   -0.0000   -0.0053    0.0040   -0.0018
    90 C8     *110      -0.0064   -0.0000    0.0000   -0.0097   -0.0015    0.0139
    91 C8     *101      -0.0000    0.0122    0.0132    0.0000   -0.0000    0.0000
    92 C8     *020       0.0079   -0.0000    0.0000    0.0080   -0.0016    0.0008
    93 C8     *011      -0.0000    0.0102    0.0063    0.0000   -0.0000    0.0000
    94 C8     *002      -0.0002    0.0000    0.0000    0.0031    0.0009   -0.0015
    95 H9     1s         0.0362   -0.0000    0.0000    0.0042   -0.0077    0.0306
    96 H9     *s         0.0259   -0.0000    0.0001    0.0242   -0.0143   -0.0078
    97 H10    1s         0.0387   -0.0000   -0.0000    0.0345    0.0057   -0.0316
    98 H10    *s         0.0276    0.0000   -0.0000    0.0136    0.0132   -0.0187
--

      Von Neumann Entropy (Root   1) =  1.39144


      Mulliken population analysis for root number:  1
      -----------------------------------------------


++    Molecular charges:
      ------------------

      Mulliken charges per centre and basis function type
      ---------------------------------------------------

                C1      C2      C3      C4      H5      H6      C7      C8      H9      H10   
      1s       1.9968  1.9967  1.9968  1.9968  0.5131  0.5126  1.9966  1.9967  0.5216  0.5248
      2s       0.6862  0.6921  0.6942  0.6944  0.0000  0.0000  0.6783  0.6742  0.0000  0.0000
      2px      0.5370  0.5381  0.6047  0.6071  0.0000  0.0000  0.7316  0.7318  0.0000  0.0000
      2pz      0.5848  0.5921  0.5554  0.5550  0.0000  0.0000  0.5265  0.5307  0.0000  0.0000
      2py      0.7823  0.7809  0.7630  0.7572  0.0000  0.0000  0.7230  0.7260  0.0000  0.0000
      *s       0.5696  0.5622  0.4781  0.4834  0.2477  0.2485  0.5145  0.5079  0.2612  0.2568
      *px      0.3382  0.3340  0.3682  0.3738  0.0000  0.0000  0.2287  0.2271  0.0000  0.0000
      *pz      0.4569  0.4493  0.3761  0.3773  0.0000  0.0000  0.4686  0.4706  0.0000  0.0000
      *py      0.2737  0.2692  0.0889  0.0924  0.0000  0.0000  0.3044  0.3054  0.0000  0.0000
      *200    -0.0005 -0.0018 -0.0079 -0.0073  0.0000  0.0000  0.0209  0.0214  0.0000  0.0000
      *110     0.0102  0.0094  0.0139  0.0135  0.0000  0.0000  0.0173  0.0178  0.0000  0.0000
      *101     0.0018  0.0017  0.0028  0.0027  0.0000  0.0000  0.0082  0.0082  0.0000  0.0000
      *020     0.0481  0.0456  0.0300  0.0285  0.0000  0.0000  0.0268  0.0284  0.0000  0.0000
      *011     0.0055  0.0053  0.0088  0.0088  0.0000  0.0000  0.0028  0.0029  0.0000  0.0000
      *002    -0.0180 -0.0180 -0.0158 -0.0153  0.0000  0.0000 -0.0193 -0.0190  0.0000  0.0000
      Total    6.2726  6.2568  5.9571  5.9684  0.7608  0.7611  6.2289  6.2301  0.7827  0.7816

      N-E     -0.2726 -0.2568  0.0429  0.0316  0.2392  0.2389 -0.2289 -0.2301  0.2173  0.2184

      Total electronic charge=   40.000000

      Total            charge=   -0.000000
--



      Expectation values of various properties for root number:  1
      -----------------------------------------------------------


++    Molecular properties:
      ---------------------

      Charge (e):
                      =   -0.0000
      Dipole Moment (Debye):
      Origin of the operator (Ang)=    0.0000    0.0000    0.0000
                   X= -7.8527E-03               Y=  3.1904E-01               Z=  5.3813E-04           Total=  3.1914E-01
      Quadrupole Moment (Debye*Ang):
      Origin of the operator (Ang)=    0.0011   -0.0139   -0.0001
                  XX= -3.6115E+01              XY=  6.8535E-02              XZ=  2.2258E-03              YY= -2.5553E+01
                  YZ= -2.8560E-04              ZZ= -3.7806E+01
      In traceless form (Debye*Ang)
                  XX= -4.4360E+00              XY=  1.0280E-01              XZ=  3.3387E-03              YY=  1.1407E+01
                  YZ= -4.2840E-04              ZZ= -6.9712E+00
--


      Input file to MOLDEN was generated!

      Average orbitals are written to the RASORB file
      Natural orbitals for root   1 are written to the RASORB.1 file
      Spin density orbitals for root   1 are written to the SPDORB.1 file

--- Stop Module: rasscf at Tue Jul  2 05:03:06 2024 /rc=_RC_ALL_IS_WELL_ ---
*** files: ts.rasscf.molden ts.RasOrb.1 ts.RasOrb ts.SpdOrb.1 xmldump
    saved to directory /home/kenya/molcas_test/0625_re
--- Module rasscf spent 6 minutes 30 seconds ---

--- Start Module: alaska at Tue Jul  2 05:03:06 2024 ---

()()()()()()()()()()()()()()()()()()()()()()()()()()()()()()()()()()()()()()()()()()()()()()()()()()

                                              &ALASKA

                                   only a single process is used
                       available to each process: 2.0 GB of memory, 1 thread
                                            pid: 252860
()()()()()()()()()()()()()()()()()()()()()()()()()()()()()()()()()()()()()()()()()()()()()()()()()()


                     Threshold for contributions to the gradient: 1.000E-07


                    ********************************************
                    * Symmetry Adapted Cartesian Displacements *
                    ********************************************


           Irreducible representation : a  
           Basis function(s) of irrep: x, y, xy, Rz, z, xz, Ry, yz, Rx, I                                              

 Basis Label        Type   Center Phase
   1   C1           x         1     1
   2   C1           y         1     1
   3   C1           z         1     1
   4   C2           x         2     1
   5   C2           y         2     1
   6   C2           z         2     1
   7   C3           x         3     1
   8   C3           y         3     1
   9   C3           z         3     1
  10   C4           x         4     1
  11   C4           y         4     1
  12   C4           z         4     1
  13   H5           x         5     1
  14   H5           y         5     1
  15   H5           z         5     1
  16   H6           x         6     1
  17   H6           y         6     1
  18   H6           z         6     1
  19   C7           x         7     1
  20   C7           y         7     1
  21   C7           z         7     1
  22   C8           x         8     1
  23   C8           y         8     1
  24   C8           z         8     1
  25   H9           x         9     1
  26   H9           y         9     1
  27   H9           z         9     1
  28   H10          x        10     1
  29   H10          y        10     1
  30   H10          z        10     1

                     No automatic utilization of translational and rotational invariance of the energy is employed.

 Conventional ERI gradients!

 **************************************************
 *                                                *
 *              Molecular gradients               *
 *                                                *
 **************************************************

  Irreducible representation: a  
 ------------------------------------------------------------------------------------------
                              X                       Y                       Z
 ------------------------------------------------------------------------------------------
  C1                8.54668160641836E-04    1.16343026702559E-03   -4.41397120222670E-06
  C2               -2.64784463200329E-04    9.51903751484906E-05   -2.03758575784236E-05
  C3                3.69289474733314E-03   -7.79747878014447E-03    9.52653595637110E-05
  C4               -5.05807665422964E-05    3.33495701750230E-04   -3.68161020075672E-05
  H5                2.49603657029862E-05    1.86477897563542E-05    8.53102152216121E-06
  H6               -1.54211311067298E-04    1.54609597626809E-05   -4.16604340657001E-06
  C7               -1.03617467056072E-03    1.27009987676896E-02   -1.54085668103952E-04
  C8               -3.38744267116553E-05   -6.50489123909637E-04    8.09635499284880E-05
  H9               -3.10095477968564E-03   -5.87236128873903E-03    6.25964225144690E-06
  H10               6.80571439952704E-05   -6.89466815950723E-06    2.88380690328495E-05
 ------------------------------------------------------------------------------------------

--- Stop Module: alaska at Tue Jul  2 05:03:16 2024 /rc=_RC_ALL_IS_WELL_ ---
*** files: xmldump
    saved to directory /home/kenya/molcas_test/0625_re
--- Module alaska spent 9 seconds ---

--- Start Module: slapaf at Tue Jul  2 05:03:16 2024 ---

()()()()()()()()()()()()()()()()()()()()()()()()()()()()()()()()()()()()()()()()()()()()()()()()()()

                                              &SLAPAF

                                   only a single process is used
                       available to each process: 2.0 GB of memory, 1 thread
                                            pid: 252923
()()()()()()()()()()()()()()()()()()()()()()()()()()()()()()()()()()()()()()()()()()()()()()()()()()



++       Slapaf input parameters:
         ------------------------

 Maximum number of iterations:              2000
 Convergence test a la Schlegel.
 Convergence criterion on gradient/para.<=: 3.0E-04
 Convergence criterion on step/parameter<=: 3.0E-04
 Convergence criterion on energy change <=: 0.0E+00
 Parameters for step-restricted optimization
 Maximum step length (initial seed):       3.00E-01

 -RFO activated with parameters:
   Maximum number of data points used in RFO:      5
 -Constrained optimization.

 -Optimization for minimum.
  Optimization method: RS-RFO.

 -Initial Hessian guessed by Hessian Model Function (HMF).
  HMF augmented with weak interactions.

 -Hessian update method: Broyden-Fletcher-Goldfarb-Shanno
  Maximum number of points in Hessian update:  5

 -Relaxation will be done on non-redundant internal coordinates, based on
  force constant weighted redundant internal coordinates.

--

 ******************************************
 * Statistics of the internal coordinates *
 ******************************************
 Translations and Rotations:         0
 Bonds                     :         9
 Angles                    :        12
 Torsions                  :        10
 Out-of-plane angles       :         2


++ Constraints section
                                  CONSTRAINTS

********************************************************************************
A = BOND C1 C2
VALUES
A = 1.9 ANGSTROM
********************************************************************************


 *************************************************************
 * Values of the primitive constraints                       *
 *************************************************************
 A        : Bond Length=  1.900022 / Angstrom  3.590521 / bohr


 *******************************************
 * Values of the constraints   / au or rad *
 *******************************************
   Label        C         C0
 Cns001      3.590521  3.590480

--


**********************************************************************************************************************
*                                    Energy Statistics for Geometry Optimization                                     *
**********************************************************************************************************************
                       Energy     Grad      Grad              Step                 Estimated   Geom       Hessian     
Iter      Energy       Change     Norm      Max    Element    Max     Element     Final Energy Update Update   Index  
  1   -229.49286210  0.00000000 0.010314 -0.006678 nrc021  -0.012147  nrc005     -229.49295744 RS-RFO  None      0    

       +----------------------------------+----------------------------------+
       +    Cartesian Displacements       +    Gradient in internals         +
       +  Value      Threshold Converged? +  Value      Threshold Converged? +
 +-----+----------------------------------+----------------------------------+
 + RMS + 4.9186E-03  1.2000E-03     No    + 2.1053E-03  3.0000E-04     No    +
 +-----+----------------------------------+----------------------------------+
 + Max + 8.4821E-03  1.8000E-03     No    + 6.6782E-03  4.5000E-04     No    +
 +-----+----------------------------------+----------------------------------+

 Convergence not reached yet!

*****************************************************************************************************************
*****************************************************************************************************************

++ Geometry section

********************************************************************************
  Geometrical information of the new structure
********************************************************************************


 *********************************************************
 * Nuclear coordinates for the next iteration / Bohr     *
 *********************************************************
  ATOM              X               Y               Z     
  C1              -1.790105        2.275739       -0.000286
  C2               1.800386        2.280025        0.000773
  C3              -2.634170        0.007460       -0.000986
  C4               2.622437       -0.023675        0.000416
  H5               2.458744        4.181336        0.000891
  H6              -2.457665        4.175390       -0.000481
  C7              -1.274077       -2.360928        0.001080
  C8               1.280889       -2.359800       -0.000428
  H9              -2.282314       -4.126007        0.000330
  H10              2.275876       -4.128441       -0.001309


 *********************************************************
 * Nuclear coordinates for the next iteration / Angstrom *
 *********************************************************
  ATOM              X               Y               Z     
  C1              -0.947283        1.204269       -0.000151
  C2               0.952723        1.206537        0.000409
  C3              -1.393943        0.003947       -0.000522
  C4               1.387734       -0.012528        0.000220
  H5               1.301111        2.212668        0.000472
  H6              -1.300540        2.209521       -0.000254
  C7              -0.674213       -1.249349        0.000572
  C8               0.677817       -1.248753       -0.000226
  H9              -1.207749       -2.183389        0.000175
  H10              1.204342       -2.184677       -0.000693


                    *************************************** 
                    *    InterNuclear Distances / Bohr    * 
                    *************************************** 

               1 C1            2 C2            3 C3            4 C4            5 H5    
    1 C1       0.000000
    2 C2       3.590494        0.000000
    3 C3       2.420235        4.982956        0.000000
    4 C4       4.975725        2.445977        5.256699        0.000000
    5 H5       4.656611        2.012068        6.584757        4.208195        0.000000
    6 H6       2.013531        4.660838        4.171666        6.590871        4.916413
    7 C7       4.665294        5.566935        2.731138        4.543740        7.532275
    8 C8       5.560506        4.668818        4.575107        2.693926        6.646338
    9 H9       6.420641        7.596426        4.148415        6.394194        9.565018
   10 H10      7.585890        6.426083        6.419830        4.119371        8.311789

               6 H6            7 C7            8 C8            9 H9           10 H10   
    6 H6       0.000000
    7 C7       6.642614        0.000000
    8 C8       7.528977        2.554967        0.000000
    9 H9       8.303248        2.032744        3.976921        0.000000
   10 H10      9.558243        3.965637        2.029308        4.558191        0.000000

                    ******************************************* 
                    *    InterNuclear Distances / Angstrom    * 
                    ******************************************* 

               1 C1            2 C2            3 C3            4 C4            5 H5    
    1 C1       0.000000
    2 C2       1.900008        0.000000
    3 C3       1.280733        2.636867        0.000000
    4 C4       2.633040        1.294355        2.781726        0.000000
    5 H5       2.464172        1.064740        3.484503        2.226881        0.000000
    6 H6       1.065515        2.466409        2.207550        3.487739        2.601654
    7 C7       2.468767        2.945895        1.445256        2.404444        3.985908
    8 C8       2.942493        2.470632        2.421042        1.425564        3.517090
    9 H9       3.397657        4.019856        2.195247        3.383662        5.061590
   10 H10      4.014280        3.400536        3.397228        2.179877        4.398409

               6 H6            7 C7            8 C8            9 H9           10 H10   
    6 H6       0.000000
    7 C7       3.515120        0.000000
    8 C8       3.984163        1.352030        0.000000
    9 H9       4.393890        1.075682        2.104496        0.000000
   10 H10      5.058005        2.098525        1.073863        2.412091        0.000000

                    ************************************** 
                    *    Valence Bond Angles / Degree    * 
                    ************************************** 
                          Atom centers                 Phi
                      3 C3       1 C1       6 H6       140.23
                      4 C4       2 C2       5 H5       141.26
                      1 C1       3 C3       7 C7       129.72
                      2 C2       4 C4       8 C8       130.49
                      3 C3       7 C7       8 C8       119.84
                      3 C3       7 C7       9 H9       120.40
                      8 C8       7 C7       9 H9       119.76
                      4 C4       8 C8       7 C7       119.89
                      4 C4       8 C8      10 H10      120.77
                      7 C7       8 C8      10 H10      119.34

           ***************************************************************
           *              Valence Dihedral Angles / Degree               *
           ***************************************************************
                    Atom centers                       Phi1     Phi2     Theta 
           6 H6       1 C1       3 C3       7 C7        140.23   129.72  -179.96
           5 H5       2 C2       4 C4       8 C8        141.26   130.49  -179.98
           1 C1       3 C3       7 C7       8 C8        129.72   119.84    -0.12
           1 C1       3 C3       7 C7       9 H9        129.72   120.40   179.99
           2 C2       4 C4       8 C8       7 C7        130.49   119.89    -0.05
           2 C2       4 C4       8 C8      10 H10       130.49   120.77   179.98
           3 C3       7 C7       8 C8       4 C4        119.84   119.89     0.11
           3 C3       7 C7       8 C8      10 H10       119.84   119.34  -179.92
           9 H9       7 C7       8 C8      10 H10       119.76   119.34    -0.03
           4 C4       8 C8       7 C7       9 H9        119.89   119.76   180.00
--
--- Stop Module: slapaf at Tue Jul  2 05:03:16 2024 /rc=_RC_CONTINUE_LOOP_ ---
*** files: ts.geo.molden ts.structure ts.Opt.xyz xmldump
    saved to directory /home/kenya/molcas_test/0625_re

>>> END DO

--- Start Module: seward at Tue Jul  2 05:03:16 2024 ---
--- Stop Module: seward at Tue Jul  2 05:03:19 2024 /rc=_RC_ALL_IS_WELL_ ---
*** files: xmldump
    saved to directory /home/kenya/molcas_test/0625_re
--- Module seward spent 2 seconds ---

--- Start Module: rasscf at Tue Jul  2 05:03:19 2024 ---

      Molecular orbitals exchanged:
        In symmetry  1 :  13  15
        In symmetry  1 :  24  28
        In symmetry  1 :  26  31

--- Stop Module: rasscf at Tue Jul  2 05:09:46 2024 /rc=_RC_ALL_IS_WELL_ ---
*** files: ts.rasscf.molden ts.RasOrb.1 ts.RasOrb ts.SpdOrb.1 xmldump
    saved to directory /home/kenya/molcas_test/0625_re
--- Module rasscf spent 6 minutes 27 seconds ---

--- Start Module: alaska at Tue Jul  2 05:09:46 2024 ---
--- Stop Module: alaska at Tue Jul  2 05:09:56 2024 /rc=_RC_ALL_IS_WELL_ ---
*** files: xmldump
    saved to directory /home/kenya/molcas_test/0625_re
--- Module alaska spent 10 seconds ---

--- Start Module: slapaf at Tue Jul  2 05:09:56 2024 ---

++ Constraints section
[...]
  4   -229.49059745  0.00232523 0.015373  0.009967 nrc012  -0.002242  nrc018     -229.49061555 RS-RFO  BFGS      0    
  5   -229.49293211 -0.00233466 0.007498 -0.004878 nrc014   0.000555  nrc021     -229.49293501 RS-RFO  BFGS      0    
  6   -229.49062126  0.00231084 0.014787  0.009592 nrc018   0.000955  nrc018     -229.49062506 RS-RFO  BFGS      0    
  7   -229.49293405 -0.00231278 0.007412 -0.004819 nrc014  -0.001225  nrc018     -229.49293469 RS-RFO  BFGS      0    
  8   -229.49062629  0.00230776 0.014661  0.009516 nrc014   0.000322  nrc021     -229.49062713 RS-RFO  BFGS      0    
  9   -229.49293447 -0.00230818 0.007394 -0.004805 nrc014   0.001140  nrc018     -229.49293462 RS-RFO  BFGS      0    
 10   -229.49062739  0.00230708 0.014633  0.009504 nrc014  -0.000783  nrc018     -229.49062759 RS-RFO  BFGS      0    
 11   -229.49293457 -0.00230718 0.007389 -0.004797 nrc020  -0.000413  nrc018     -229.49293460 RS-RFO  BFGS      0    
 12   -229.49062764  0.00230693 0.014626  0.009500 nrc014   0.000912  nrc018     -229.49062769 RS-RFO  BFGS      0    
 13   -229.49293459 -0.00230695 0.007384 -0.004797 nrc014  -0.000684  nrc018     -229.49293460 RS-RFO  BFGS      0    
 14   -229.49062770  0.00230689 0.014637  0.009507 nrc014  -0.004611  nrc018     -229.49062773 RS-RFO  BFGS      0    
 15   -229.49293415 -0.00230645 0.007154 -0.004649 nrc020   0.004512  nrc018     -229.49293455 RS-RFO  BFGS      0    
 16   -229.49062773  0.00230643 0.014877  0.009662 nrc015   0.001491  nrc019     -229.49062774 RS-RFO  BFGS      0    
 17   -229.49293450 -0.00230677 0.007375 -0.004799 nrc020  -0.001378  nrc019     -229.49293458 RS-RFO  BFGS      0    
 18   -229.49062775  0.00230674 0.014625  0.009502 nrc021   0.002504  nrc021     -229.49062778 RS-RFO  BFGS      0    
 19   -229.49293394 -0.00230619 0.007316 -0.004805 nrc013   0.029595  nrc021     -229.49293579 RS-RFO  BFGS      0    
 20   -229.49057363  0.00236031 0.025797  0.017339 nrc015  -0.032290  nrc021     -229.49062916 RS-RFO  BFGS      0    
 21   -229.49293441 -0.00236078 0.003001  0.001958 nrc014   0.004520  nrc018     -229.49293444 RS-RFO  BFGS      0    
 22   -229.49062714  0.00230727 0.014756  0.009547 nrc013  -0.005340  nrc018     -229.49062773 RS-RFO  BFGS      0    
 23   -229.49293454 -0.00230740 0.007389 -0.004807 nrc015  -0.024141  nrc019     -229.49293532 RS-RFO  BFGS      0    
 24   -229.49060560  0.00232894 0.015107  0.009528 nrc018   0.023699  nrc019     -229.49062601 RS-RFO  BFGS      0    
 25   -229.49292899 -0.00232339 0.007784 -0.004825 nrc018   0.124081  nrc018     -229.49296845 RS-RFO  BFGS      0    
 26   -229.49039124  0.00253775 0.034216  0.020752 nrc012  -0.105897  nrc018     -229.49063152 RS-RFO  BFGS      0    
 27   -229.49293206 -0.00254082 0.000859 -0.000359 nrc017  -0.096940  nrc021     -229.49294431 RS-RFO  BFGS      0    
 28   -229.49040563  0.00252643 0.016140  0.009571 nrc018   0.130214  nrc022     -229.49065990 RS-RFO  BFGS      0    
 29   -229.49243188 -0.00202624 0.015385  0.008447 nrc020   0.109025  nrc019     -229.49309643 RS-RFO  BFGS      0    
 30   -229.49054740  0.00188448 0.016100  0.008945 nrc020   0.141926  nrc018     -229.49079718 RS-RFO  BFGS      0    
 31   -229.49212800 -0.00158060 0.020913 -0.010858 nrc012  -0.086063  nrc018     -229.49273922 RS-RFO  BFGS      0    
 32   -229.49070296  0.00142504 0.011915  0.007726 nrc020  -0.118853  nrc018     -229.49080864 RS-RFO  BFGS      0    
 33   -229.49260928 -0.00190632 0.013882 -0.008790 nrc016   0.083628  nrc018     -229.49278336 RS-RFO  BFGS      0    
 34   -229.49077835  0.00183093 0.010434  0.006700 nrc013   0.019311  nrc018     -229.49080406 RS-RFO  BFGS      0    
 35   -229.49274519 -0.00196684 0.013675 -0.008763 nrc015  -0.023725  nrc021     -229.49277604 RS-RFO  BFGS      0    
 36   -229.49079968  0.00194551 0.009459  0.006059 nrc017   0.008674  nrc019     -229.49080704 RS-RFO  BFGS      0    
 37   -229.49277651 -0.00197683 0.012972 -0.008374 nrc017  -0.008094  nrc019     -229.49278163 RS-RFO  BFGS      0    
 38   -229.49080198  0.00197453 0.009358  0.006004 nrc011   0.012293  nrc019     -229.49080613 RS-RFO  BFGS      0    
 39   -229.49278323 -0.00198125 0.012775 -0.008234 nrc017  -0.000584  nrc018     -229.49278488 RS-RFO  BFGS      0    
 40   -229.49080398  0.00197925 0.009331  0.006009 nrc014  -0.005768  nrc019     -229.49080505 RS-RFO  BFGS      0    
 41   -229.49278520 -0.00198123 0.012711 -0.008187 nrc014  -0.002895  nrc021     -229.49278586 RS-RFO  BFGS      0    
 42   -229.49080465  0.00198056 0.009322  0.006005 nrc016   0.002896  nrc019     -229.49080488 RS-RFO  BFGS      0    
 43   -229.49278567 -0.00198102 0.012705 -0.008188 nrc014   0.002316  nrc021     -229.49278595 RS-RFO  BFGS      0    
 44   -229.49080480  0.00198086 0.009319  0.005996 nrc016  -0.001407  nrc021     -229.49080489 RS-RFO  BFGS      0    
 45   -229.49278591 -0.00198111 0.012710 -0.008185 nrc020  -0.001208  nrc021     -229.49278599 RS-RFO  BFGS      0    
 46   -229.49080469  0.00198122 0.009304  0.006001 nrc017   0.005336  nrc019     -229.49080496 RS-RFO  BFGS      0    
 47   -229.49278553 -0.00198084 0.012618 -0.008076 nrc011  -0.004930  nrc021     -229.49278612 RS-RFO  BFGS      0    
 48   -229.49080476  0.00198078 0.009435  0.006060 nrc020   0.011679  nrc021     -229.49080536 RS-RFO  BFGS      0    

       +----------------------------------+----------------------------------+
       +    Cartesian Displacements       +    Gradient in internals         +
       +  Value      Threshold Converged? +  Value      Threshold Converged? +
 +-----+----------------------------------+----------------------------------+
 + RMS + 4.6364E-03  1.2000E-03     No    + 1.9260E-03  3.0000E-04     No    +
 +-----+----------------------------------+----------------------------------+
 + Max + 8.5168E-03  1.8000E-03     No    + 6.0601E-03  4.5000E-04     No    +
 +-----+----------------------------------+----------------------------------+

 Convergence not reached yet!

*****************************************************************************************************************
*****************************************************************************************************************

++ Geometry section

********************************************************************************
  Geometrical information of the new structure
********************************************************************************


 *********************************************************
 * Nuclear coordinates for the next iteration / Bohr     *
 *********************************************************
  ATOM              X               Y               Z     
  C1              -1.787748        2.274069       -0.000691
  C2               1.802803        2.282940        0.002216
  C3              -2.627058        0.001281       -0.004475
  C4               2.624621       -0.021620       -0.000244
  H5               2.464322        4.183238        0.002632
  H6              -2.464123        4.170767       -0.001582
  C7              -1.275483       -2.351851        0.005587
  C8               1.279954       -2.357039       -0.000579
  H9              -2.289712       -4.133637        0.005546
  H10              2.272424       -4.127049       -0.008410


 *********************************************************
 * Nuclear coordinates for the next iteration / Angstrom *
 *********************************************************
  ATOM              X               Y               Z     
  C1              -0.946036        1.203385       -0.000365
  C2               0.954002        1.208080        0.001173
  C3              -1.390179        0.000678       -0.002368
  C4               1.388890       -0.011441       -0.000129
  H5               1.304063        2.213674        0.001393
  H6              -1.303958        2.207075       -0.000837
  C7              -0.674956       -1.244546        0.002957
  C8               0.677323       -1.247291       -0.000306
  H9              -1.211663       -2.187426        0.002935
  H10              1.202515       -2.183940       -0.004450

--
--- Stop Module: slapaf at Tue Jul  2 10:04:53 2024 /rc=_RC_CONTINUE_LOOP_ ---
*** files: ts.geo.molden ts.structure ts.Opt.xyz xmldump
    saved to directory /home/kenya/molcas_test/0625_re

>>> END DO

--- Start Module: seward at Tue Jul  2 10:04:53 2024 ---
--- Stop Module: seward at Tue Jul  2 10:04:55 2024 /rc=_RC_ALL_IS_WELL_ ---
*** files: xmldump
    saved to directory /home/kenya/molcas_test/0625_re
--- Module seward spent 2 seconds ---

--- Start Module: rasscf at Tue Jul  2 10:04:55 2024 ---

      Molecular orbitals exchanged:
        In symmetry  1 :  13  15
        In symmetry  1 :  24  28
        In symmetry  1 :  26  31

--- Stop Module: rasscf at Tue Jul  2 11:02:47 2024 /rc=_RC_ALL_IS_WELL_ ---
*** files: ts.rasscf.molden ts.RasOrb.1 ts.RasOrb ts.SpdOrb.1 xmldump
    saved to directory /home/kenya/molcas_test/0625_re
--- Module rasscf spent 57 minutes 51 seconds ---

--- Start Module: alaska at Tue Jul  2 11:02:47 2024 ---
--- Stop Module: alaska at Tue Jul  2 11:02:57 2024 /rc=_RC_ALL_IS_WELL_ ---
*** files: xmldump
    saved to directory /home/kenya/molcas_test/0625_re
--- Module alaska spent 9 seconds ---

--- Start Module: slapaf at Tue Jul  2 11:02:57 2024 ---

++ Constraints section
                                  CONSTRAINTS

********************************************************************************
A = BOND C1 C2
VALUES
A = 1.9 ANGSTROM
********************************************************************************


 *************************************************************
 * Values of the primitive constraints                       *
 *************************************************************
 A        : Bond Length=  1.900045 / Angstrom  3.590564 / bohr


 *******************************************
 * Values of the constraints   / au or rad *
 *******************************************
   Label        C         C0
 Cns001      3.590564  3.590480

--


**********************************************************************************************************************
*                                    Energy Statistics for Geometry Optimization                                     *
**********************************************************************************************************************
                       Energy     Grad      Grad              Step                 Estimated   Geom       Hessian     
Iter      Energy       Change     Norm      Max    Element    Max     Element     Final Energy Update Update   Index  
  1   -229.49286210  0.00000000 0.010314 -0.006678 nrc021  -0.012147  nrc005     -229.49295744 RS-RFO  None      0    
  2   -229.49045692  0.00240518 0.018538  0.011949 nrc012   0.007837  nrc005     -229.49056665 RS-RFO  BFGS      0    
  3   -229.49292267 -0.00246575 0.007919 -0.005148 nrc020  -0.002369  nrc005     -229.49293685 RS-RFO  BFGS      0    
  4   -229.49059745  0.00232523 0.015373  0.009967 nrc012  -0.002242  nrc018     -229.49061555 RS-RFO  BFGS      0    
  5   -229.49293211 -0.00233466 0.007498 -0.004878 nrc014   0.000555  nrc021     -229.49293501 RS-RFO  BFGS      0    
  6   -229.49062126  0.00231084 0.014787  0.009592 nrc018   0.000955  nrc018     -229.49062506 RS-RFO  BFGS      0    
  7   -229.49293405 -0.00231278 0.007412 -0.004819 nrc014  -0.001225  nrc018     -229.49293469 RS-RFO  BFGS      0    
  8   -229.49062629  0.00230776 0.014661  0.009516 nrc014   0.000322  nrc021     -229.49062713 RS-RFO  BFGS      0    
  9   -229.49293447 -0.00230818 0.007394 -0.004805 nrc014   0.001140  nrc018     -229.49293462 RS-RFO  BFGS      0    
 10   -229.49062739  0.00230708 0.014633  0.009504 nrc014  -0.000783  nrc018     -229.49062759 RS-RFO  BFGS      0    
 11   -229.49293457 -0.00230718 0.007389 -0.004797 nrc020  -0.000413  nrc018     -229.49293460 RS-RFO  BFGS      0    
 12   -229.49062764  0.00230693 0.014626  0.009500 nrc014   0.000912  nrc018     -229.49062769 RS-RFO  BFGS      0    
 13   -229.49293459 -0.00230695 0.007384 -0.004797 nrc014  -0.000684  nrc018     -229.49293460 RS-RFO  BFGS      0    
 14   -229.49062770  0.00230689 0.014637  0.009507 nrc014  -0.004611  nrc018     -229.49062773 RS-RFO  BFGS      0    
 15   -229.49293415 -0.00230645 0.007154 -0.004649 nrc020   0.004512  nrc018     -229.49293455 RS-RFO  BFGS      0    
 16   -229.49062773  0.00230643 0.014877  0.009662 nrc015   0.001491  nrc019     -229.49062774 RS-RFO  BFGS      0    
 17   -229.49293450 -0.00230677 0.007375 -0.004799 nrc020  -0.001378  nrc019     -229.49293458 RS-RFO  BFGS      0    
 18   -229.49062775  0.00230674 0.014625  0.009502 nrc021   0.002504  nrc021     -229.49062778 RS-RFO  BFGS      0    
 19   -229.49293394 -0.00230619 0.007316 -0.004805 nrc013   0.029595  nrc021     -229.49293579 RS-RFO  BFGS      0    
 20   -229.49057363  0.00236031 0.025797  0.017339 nrc015  -0.032290  nrc021     -229.49062916 RS-RFO  BFGS      0    
 21   -229.49293441 -0.00236078 0.003001  0.001958 nrc014   0.004520  nrc018     -229.49293444 RS-RFO  BFGS      0    
 22   -229.49062714  0.00230727 0.014756  0.009547 nrc013  -0.005340  nrc018     -229.49062773 RS-RFO  BFGS      0    
 23   -229.49293454 -0.00230740 0.007389 -0.004807 nrc015  -0.024141  nrc019     -229.49293532 RS-RFO  BFGS      0    
 24   -229.49060560  0.00232894 0.015107  0.009528 nrc018   0.023699  nrc019     -229.49062601 RS-RFO  BFGS      0    
 25   -229.49292899 -0.00232339 0.007784 -0.004825 nrc018   0.124081  nrc018     -229.49296845 RS-RFO  BFGS      0    
 26   -229.49039124  0.00253775 0.034216  0.020752 nrc012  -0.105897  nrc018     -229.49063152 RS-RFO  BFGS      0    
 27   -229.49293206 -0.00254082 0.000859 -0.000359 nrc017  -0.096940  nrc021     -229.49294431 RS-RFO  BFGS      0    
 28   -229.49040563  0.00252643 0.016140  0.009571 nrc018   0.130214  nrc022     -229.49065990 RS-RFO  BFGS      0    
 29   -229.49243188 -0.00202624 0.015385  0.008447 nrc020   0.109025  nrc019     -229.49309643 RS-RFO  BFGS      0    
 30   -229.49054740  0.00188448 0.016100  0.008945 nrc020   0.141926  nrc018     -229.49079718 RS-RFO  BFGS      0    
 31   -229.49212800 -0.00158060 0.020913 -0.010858 nrc012  -0.086063  nrc018     -229.49273922 RS-RFO  BFGS      0    
 32   -229.49070296  0.00142504 0.011915  0.007726 nrc020  -0.118853  nrc018     -229.49080864 RS-RFO  BFGS      0    
 33   -229.49260928 -0.00190632 0.013882 -0.008790 nrc016   0.083628  nrc018     -229.49278336 RS-RFO  BFGS      0    
 34   -229.49077835  0.00183093 0.010434  0.006700 nrc013   0.019311  nrc018     -229.49080406 RS-RFO  BFGS      0    
 35   -229.49274519 -0.00196684 0.013675 -0.008763 nrc015  -0.023725  nrc021     -229.49277604 RS-RFO  BFGS      0    
 36   -229.49079968  0.00194551 0.009459  0.006059 nrc017   0.008674  nrc019     -229.49080704 RS-RFO  BFGS      0    
 37   -229.49277651 -0.00197683 0.012972 -0.008374 nrc017  -0.008094  nrc019     -229.49278163 RS-RFO  BFGS      0    
 38   -229.49080198  0.00197453 0.009358  0.006004 nrc011   0.012293  nrc019     -229.49080613 RS-RFO  BFGS      0    
 39   -229.49278323 -0.00198125 0.012775 -0.008234 nrc017  -0.000584  nrc018     -229.49278488 RS-RFO  BFGS      0    
 40   -229.49080398  0.00197925 0.009331  0.006009 nrc014  -0.005768  nrc019     -229.49080505 RS-RFO  BFGS      0    
 41   -229.49278520 -0.00198123 0.012711 -0.008187 nrc014  -0.002895  nrc021     -229.49278586 RS-RFO  BFGS      0    
 42   -229.49080465  0.00198056 0.009322  0.006005 nrc016   0.002896  nrc019     -229.49080488 RS-RFO  BFGS      0    
 43   -229.49278567 -0.00198102 0.012705 -0.008188 nrc014   0.002316  nrc021     -229.49278595 RS-RFO  BFGS      0    
 44   -229.49080480  0.00198086 0.009319  0.005996 nrc016  -0.001407  nrc021     -229.49080489 RS-RFO  BFGS      0    
 45   -229.49278591 -0.00198111 0.012710 -0.008185 nrc020  -0.001208  nrc021     -229.49278599 RS-RFO  BFGS      0    
 46   -229.49080469  0.00198122 0.009304  0.006001 nrc017   0.005336  nrc019     -229.49080496 RS-RFO  BFGS      0    
 47   -229.49278553 -0.00198084 0.012618 -0.008076 nrc011  -0.004930  nrc021     -229.49278612 RS-RFO  BFGS      0    
 48   -229.49080476  0.00198078 0.009435  0.006060 nrc020   0.011679  nrc021     -229.49080536 RS-RFO  BFGS      0    
 49   -229.49278118 -0.00197642 0.014251 -0.009133 nrc015   0.019476  nrc018     -229.49278621 RS-RFO  BFGS      0    

       +----------------------------------+----------------------------------+
       +    Cartesian Displacements       +    Gradient in internals         +
       +  Value      Threshold Converged? +  Value      Threshold Converged? +
 +-----+----------------------------------+----------------------------------+
 + RMS + 3.5678E-03  1.2000E-03     No    + 2.9089E-03  3.0000E-04     No    +
 +-----+----------------------------------+----------------------------------+
 + Max + 5.8449E-03  1.8000E-03     No    + 9.1330E-03  4.5000E-04     No    +
 +-----+----------------------------------+----------------------------------+

 Convergence not reached yet!

*****************************************************************************************************************
*****************************************************************************************************************

++ Geometry section

********************************************************************************
  Geometrical information of the new structure
********************************************************************************


 *********************************************************
 * Nuclear coordinates for the next iteration / Bohr     *
 *********************************************************
  ATOM              X               Y               Z     
  C1              -1.787731        2.274052       -0.000932
  C2               1.802860        2.282682        0.002229
  C3              -2.626356        0.001412        0.000891
  C4               2.624022       -0.021768       -0.001016
  H5               2.462456        4.183590        0.000129
  H6              -2.462725        4.171230       -0.000676
  C7              -1.275679       -2.351883       -0.000372
  C8               1.280131       -2.357407        0.002984
  H9              -2.289613       -4.133445        0.001081
  H10              2.272634       -4.127364       -0.004318


 *********************************************************
 * Nuclear coordinates for the next iteration / Angstrom *
 *********************************************************
  ATOM              X               Y               Z     
  C1              -0.946026        1.203377       -0.000493
  C2               0.954032        1.207943        0.001180
  C3              -1.389808        0.000747        0.000471
  C4               1.388573       -0.011519       -0.000538
  H5               1.303076        2.213860        0.000068
  H6              -1.303218        2.207320       -0.000358
  C7              -0.675060       -1.244563       -0.000197
  C8               0.677416       -1.247486        0.001579
  H9              -1.211611       -2.187325        0.000572
  H10              1.202626       -2.184107       -0.002285

--
--- Stop Module: slapaf at Tue Jul  2 11:02:57 2024 /rc=_RC_CONTINUE_LOOP_ ---
*** files: ts.geo.molden ts.structure ts.Opt.xyz xmldump
    saved to directory /home/kenya/molcas_test/0625_re

>>> END DO

--- Start Module: seward at Tue Jul  2 11:02:57 2024 ---
--- Stop Module: seward at Tue Jul  2 11:03:00 2024 /rc=_RC_ALL_IS_WELL_ ---
*** files: xmldump
    saved to directory /home/kenya/molcas_test/0625_re
--- Module seward spent 2 seconds ---

--- Start Module: rasscf at Tue Jul  2 11:03:00 2024 ---

      Molecular orbitals exchanged:
        In symmetry  1 :  13  15
        In symmetry  1 :  24  28
        In symmetry  1 :  26  31

