   This run of MOLCAS is using the pymolcas driver

                             OPE
                             OPE          NMOL  CASOP  ENMOLC A   SO
                 OPE        NMOLC        AS  OP EN  MO LC     AS  OP
                OPENM       OL CA        SO  PE NM  OL CA     SOP EN
                OP EN      MO   LC       AS  OP ENMOL  CASO   PENMOL
                OP  EN     MO   LC       AS  OP EN     MO     LC ASO
               OP   E  NMOL  C  AS       OP  EN MO     LC     AS  OP
               OP  E   NMO   LC AS        OPEN  MO     LCASOP EN   M
               O  PEN   MO  LCA  SO
            OPE   NMO   L   CAS    OP
        OPENMOL  CASOP     ENMOL   CASOPE
     OPENMOLCA   SOPENMOLCASOPEN   MOLCASOPE
    OPENMOLCAS   OP           EN   MOL    CAS
    OPENMOLCAS       OP  ENM        O     LCA
    OPENMOLCAS    OPEN  MOLCASO     P  E  NMO
    OPENMOLCAS     OP               E  N  MOL
    OPENMOLCA   SO           PENM   O  L  CAS    OPEN    MO    LCAS
    OPENMOLCA   SOP           ENM   O  L  CAS   OP  EN  MOLC  AS   O
    OPENMOLCA   SOPE           NM      O  LCA   S      OP  EN MO
    OPENMOLC                AS         O  PEN   M      OL  CA  SOPE
    OPENMO        LCASOPE  NMOL        C  ASO   P      ENMOLC     AS
    OPE     NMO      LCA  SO     P     E   NM   OL  CA SO  PE N   MO
          OPENMOLCA            SOPE   NMO        LCAS  O    P  ENMO
     OPENMOLCASOPENMOLCASOPENMOLCASOPENMOLCA
        OPENMOLCASOPENMOLCASOPENMOLCASOPE
            OPENMOLCASOPENMOLCASOPENM
               OPENMOLCASOPENMOLCA        version: 24.02
                   OPENMOLCASO
                       OPE                tag: 428-g03afa2e9a

 OpenMolcas is free software; you can redistribute it and/or modify it
 under the terms of the GNU Lesser General Public License version 2.1.
 OpenMolcas is distributed in the hope that it will be useful, but it
 is provided "as is" and without any express or implied warranties.
 For more details see the full text of the license in the file
 LICENSE or in <http://www.gnu.org/licenses/>.

                 Copyright (C) The OpenMolcas Authors
           For the author list and the recommended citation,
                   consult the file CONTRIBUTORS.md

           *************************************************
           * pymolcas version py2.28                       *
           *   build c4a6d18ded8cb6cad61d2372a9abd97c      *
           *   (after the EMIL interpreter by V. Veryazov) *
           *************************************************

configuration info
------------------
Host name: DESKTOP-ET1S6F4 (Linux)
C Compiler ID: GNU
C flags: -std=gnu99 -fopenmp
Fortran Compiler ID: GNU
Fortran flags: -fno-aggressive-loop-optimizations -cpp -fdefault-integer-8 -fopenmp
Definitions: _WARNING_WORKAROUND_;_MOLCAS_;_I8_;_LINUX_
Parallel: OFF (GA=OFF)


   ----------------------------------------------------------------------
  |
  |           Project: product
  |    Submitted from: /home/kenya/molcas_test/0625
  |      Scratch area: /tmp/product
  |   Save outputs to: /home/kenya/molcas_test/0625
  |            Molcas: /home/kenya/OpenMolcas/builds/gnu_dev_omp
  |
  | Scratch area is NOT empty
  |
  |    MOLCAS_DRIVER = /home/kenya/OpenMolcas/builds/gnu_dev_omp/pymolcas
  |    MOLCAS_NPROCS = 1
  |    MOLCAS_SOURCE = /home/kenya/OpenMolcas
  | MOLCAS_STRUCTURE = 0
  |
   ----------------------------------------------------------------------

++ ---------   Input file   ---------

&GATEWAY
Coord = 10
        Energy:      10.7429477
C          2.60146        2.01277        0.00000
C          2.63853        0.61403        0.00000
C          1.37214        2.67919        0.00000
C          1.44624       -0.11657        0.00000
C          0.17985        1.94859        0.00000
C          0.21692        0.54985        0.00000
H         -0.76929        2.46762        0.00000
H         -0.70340       -0.01873        0.00000
H          3.52178        2.58135        0.00000
H          3.58768        0.09499        0.00000

  Basis = 6-31G*
  Group = Full
  NoCD

&SEWARD

&SCF

&RASSCF
  Inactive = 14 0
  RAS2   = 6 6
  nActEl = 12 0 0
  alter = 3
  1 12 16
  1 19 24
  1 20 27
  LUMORB

-- ----------------------------------

*** symbolic link created: INPORB -> product.ScfOrb
--- Start Module: gateway at Tue Jun 25 14:35:13 2024 ---

()()()()()()()()()()()()()()()()()()()()()()()()()()()()()()()()()()()()()()()()()()()()()()()()()()

                                              &GATEWAY

                                   only a single process is used
                       available to each process: 2.0 GB of memory, 1 thread
                                             pid: 64712
()()()()()()()()()()()()()()()()()()()()()()()()()()()()()()()()()()()()()()()()()()()()()()()()()()

      Found SYMMETRY generators: z

++    Symmetry information:
      ---------------------

                    --- Group Generators ---
                    Reflection in the xy-plane  

                    Character Table for Cs 

                             E   s(xy)
                    a'       1     1  x, y, xy, Rz
                    a"       1    -1  z, xz, Ry, yz, Rx, I
--


++    Basis set information:
      ----------------------


      Basis set label: C.6-31G**....

      Electronic valence basis set:
      ------------------
      Associated Effective Charge   6.000000 au
      Associated Actual Charge      6.000000 au
      Nuclear Model: Point charge

      Shell  nPrim  nBasis  Cartesian Spherical Contaminant
         s      10       3        X                  
         p       4       2        X                  
         d       1       1        X                  


      Basis set label: H.6-31G....

      Electronic valence basis set:
      ------------------
      Associated Effective Charge   1.000000 au
      Associated Actual Charge      1.000000 au
      Nuclear Model: Point charge

      Shell  nPrim  nBasis  Cartesian Spherical Contaminant
         s       4       2        X                  
--


++    Molecular structure info:
      -------------------------

                    ************************************************ 
                    **** Cartesian Coordinates / Bohr, Angstrom **** 
                    ************************************************ 

     Center  Label                x              y              z                     x              y              z
        1      C1               4.916047       3.803584       0.000000              2.601460       2.012770       0.000000
        2      C2               4.986099       1.160349       0.000000              2.638530       0.614030       0.000000
        3      C3               2.592969       5.062935       0.000000              1.372140       2.679190       0.000000
        4      C4               2.732998      -0.220285       0.000000              1.446240      -0.116570       0.000000
        5      C5               0.339867       3.682301       0.000000              0.179850       1.948590       0.000000
        6      C6               0.409919       1.039066       0.000000              0.216920       0.549850       0.000000
        7      H7              -1.453747       4.663126       0.000000             -0.769290       2.467620       0.000000
        8      H8              -1.329233      -0.035395       0.000000             -0.703400      -0.018730       0.000000
        9      H9               6.655200       4.878045       0.000000              3.521780       2.581350       0.000000
       10      H10              6.779733       0.179505       0.000000              3.587680       0.094990       0.000000

                    *************************************** 
                    *    InterNuclear Distances / Bohr    * 
                    *************************************** 

               1 C1            2 C2            3 C3            4 C4            5 C5            6 C6    
    1 C1       0.000000
    2 C2       2.644164        0.000000
    3 C3       2.642472        4.577910        0.000000
    4 C4       4.577907        2.642464        5.285076        0.000000
    5 C5       4.577787        5.286560        2.642464        4.577910        0.000000
    6 C6       5.286563        4.577787        4.577907        2.642472        2.644164        0.000000
    7 H7       6.427526        7.330830        4.066419        6.432460        2.044277        4.075177
    8 H8       7.330845        6.427536        6.432467        4.066436        4.075188        2.044289
    9 H9       2.044289        4.075188        4.066436        6.432467        6.427536        7.330845
   10 H10      4.075202        2.044303        6.432486        4.066435        7.330856        6.427547

               7 H7            8 H8            9 H9           10 H10   
    7 H7       0.000000
    8 H8       4.700170        0.000000
    9 H9       8.111795        9.375130        0.000000
   10 H10      9.375129        8.111813        4.700190        0.000000

                    ******************************************* 
                    *    InterNuclear Distances / Angstrom    * 
                    ******************************************* 

               1 C1            2 C2            3 C3            4 C4            5 C5            6 C6    
    1 C1       0.000000
    2 C2       1.399231        0.000000
    3 C3       1.398336        2.422525        0.000000
    4 C4       2.422524        1.398332        2.796742        0.000000
    5 C5       2.422460        2.797527        1.398332        2.422525        0.000000
    6 C6       2.797529        2.422460        2.422524        1.398336        1.399231        0.000000
    7 H7       3.401300        3.879308        2.151856        3.403911        1.081785        2.156491
    8 H8       3.879316        3.401306        3.403915        2.151865        2.156497        1.081791
    9 H9       1.081791        2.156497        2.151865        3.403915        3.401306        3.879316
   10 H10      2.156504        1.081799        3.403925        2.151865        3.879322        3.401312

               7 H7            8 H8            9 H9           10 H10   
    7 H7       0.000000
    8 H8       2.487223        0.000000
    9 H9       4.292577        4.961105        0.000000
   10 H10      4.961105        4.292587        2.487233        0.000000

                    ************************************** 
                    *    Valence Bond Angles / Degree    * 
                    ************************************** 
                          Atom centers                 Phi
                      2 C2       1 C1       3 C3       119.98
                      2 C2       1 C1       9 H9       120.19
                      3 C3       1 C1       9 H9       119.83
                      1 C1       2 C2       4 C4       119.98
                      1 C1       2 C2      10 H10      120.19
                      4 C4       2 C2      10 H10      119.83
                      1 C1       3 C3       5 C5       120.04
                      2 C2       4 C4       6 C6       120.04
                      3 C3       5 C5       6 C6       119.98
                      3 C3       5 C5       7 H7       119.83
                      6 C6       5 C5       7 H7       120.19
                      4 C4       6 C6       5 C5       119.98
                      4 C4       6 C6       8 H8       119.83
                      5 C5       6 C6       8 H8       120.19

           ***************************************************************
           *              Valence Dihedral Angles / Degree               *
           ***************************************************************
                    Atom centers                       Phi1     Phi2     Theta 
           3 C3       1 C1       2 C2       4 C4        119.98   119.98    -0.00
           3 C3       1 C1       2 C2      10 H10       119.98   120.19  -180.00
           9 H9       1 C1       2 C2      10 H10       120.19   120.19     0.00
           2 C2       1 C1       3 C3       5 C5        119.98   120.04    -0.00
           4 C4       2 C2       1 C1       9 H9        119.98   120.19  -180.00
           1 C1       2 C2       4 C4       6 C6        119.98   120.04    -0.00
           5 C5       3 C3       1 C1       9 H9        120.04   119.83  -180.00
           1 C1       3 C3       5 C5       6 C6        120.04   119.98     0.00
           1 C1       3 C3       5 C5       7 H7        120.04   119.83  -180.00
           6 C6       4 C4       2 C2      10 H10       120.04   119.83  -180.00
           2 C2       4 C4       6 C6       5 C5        120.04   119.98    -0.00
           2 C2       4 C4       6 C6       8 H8        120.04   119.83  -180.00
           3 C3       5 C5       6 C6       4 C4        119.98   119.98     0.00
           3 C3       5 C5       6 C6       8 H8        119.98   120.19  -180.00
           7 H7       5 C5       6 C6       8 H8        120.19   120.19    -0.00
           4 C4       6 C6       5 C5       7 H7        119.98   120.19  -180.00
--


            Nuclear Potential Energy            184.49444599 au

--- Stop Module: gateway at Tue Jun 25 14:35:13 2024 /rc=_RC_ALL_IS_WELL_ ---
*** files: xmldump
    saved to directory /home/kenya/molcas_test/0625

*** symbolic link created: INPORB -> product.ScfOrb
--- Start Module: seward at Tue Jun 25 14:35:13 2024 ---

()()()()()()()()()()()()()()()()()()()()()()()()()()()()()()()()()()()()()()()()()()()()()()()()()()

                                              &SEWARD

                                   only a single process is used
                       available to each process: 2.0 GB of memory, 1 thread
                                             pid: 64719
()()()()()()()()()()()()()()()()()()()()()()()()()()()()()()()()()()()()()()()()()()()()()()()()()()

               SEWARD will generate:
                  Multipole Moment integrals up to order  2
                  Kinetic Energy integrals
                  Nuclear Attraction integrals (point charge)
                  One-Electron Hamiltonian integrals
                  Velocity integrals
                  Orbital angular momentum around ( 2.6630  2.4213  0.0000 )
                  Velocity quadrupole around ( 2.6630  2.4213  0.0000 )
                  Two-Electron Repulsion integrals

                   Integrals are discarded if absolute value <: 1.00E-14
                   Integral cutoff threshold is set to       <: 1.00E-16

                    Unitary symmetry adaptation


            Nuclear Potential Energy            184.49444599 au


      Basis set specifications :
      Symmetry species         a'   a" 
      Basis functions           74   24


      Input file to MOLDEN was generated!

--- Stop Module: seward at Tue Jun 25 14:35:16 2024 /rc=_RC_ALL_IS_WELL_ ---
*** files: product.GssOrb product.guessorb.molden xmldump
    saved to directory /home/kenya/molcas_test/0625
--- Module seward spent 2 seconds ---

*** symbolic link created: INPORB -> product.ScfOrb
--- Start Module: scf at Tue Jun 25 14:35:16 2024 ---

()()()()()()()()()()()()()()()()()()()()()()()()()()()()()()()()()()()()()()()()()()()()()()()()()()

                                                &SCF

                                   only a single process is used
                       available to each process: 2.0 GB of memory, 1 thread
                                             pid: 64766
()()()()()()()()()()()()()()()()()()()()()()()()()()()()()()()()()()()()()()()()()()()()()()()()()()

++    Input section:
      --------------

      Header of the integral files:
      
       Integrals generated by Gateway/Seward, Tue Jun 25 14:35:13 2024


      Cartesian coordinates in Angstrom:
      -----------------------------------------------------
      No.  Label        X            Y            Z        
      -----------------------------------------------------
       1   C1         2.60146000   2.01277000   0.00000000
       2   C2         2.63853000   0.61403000   0.00000000
       3   C3         1.37214000   2.67919000   0.00000000
       4   C4         1.44624000  -0.11657000   0.00000000
       5   C5         0.17985000   1.94859000   0.00000000
       6   C6         0.21692000   0.54985000   0.00000000
       7   H7        -0.76929000   2.46762000   0.00000000
       8   H8        -0.70340000  -0.01873000   0.00000000
       9   H9         3.52178000   2.58135000   0.00000000
      10   H10        3.58768000   0.09499000   0.00000000
      -----------------------------------------------------
      Nuclear repulsion energy =  184.49444599
--

++    Orbital specifications:
      -----------------------

      Symmetry species               1   2
                                    a'  a"
      Frozen orbitals                0   0
      Occupied orbitals             17   3
      Secondary orbitals            57  21
      Deleted orbitals               0   0
      Total number of orbitals      74  24
      Number of basis functions     74  24
--

      Molecular charge                           0.000

++    Optimization specifications:
      ----------------------------

      SCF Algorithm: Conventional
      Minimized density differences are used
      Number of density matrices in core                 5
      Maximum number of NDDO SCF iterations            400
      Maximum number of HF SCF iterations              400
      Threshold for SCF energy change             1.00E-09
      Threshold for density matrix                1.00E-04
      Threshold for Fock matrix                   1.50E-04
      Threshold for linear dependence             1.00E-09
      Threshold at which DIIS is turned on        1.50E-01
      Maximum depth in the DIIS procedure                5
      Maximum depth in the BFGS Hessian update          30
      Threshold at which QNR/C2DIIS is turned on  7.50E-02
      Threshold for Norm(delta) (QNR/C2DIIS)      1.00E-03
      All orbitals punched on: SCFORB
--

      Input vectors read from INPORB
      Orbital file label: * SCF orbitals


++ Convergence information
                                   SCF        iterations: Energy and convergence statistics

Iter     Tot. SCF        One-elec.       Two-elec.     Energy      Max Dij or  Max Fij      DNorm      TNorm      AccCon     Time
         Energy          Energy          Energy        Change      Delta Norm                                                in Sec.
   1  -229.242173295  -673.576718743   259.840099460   0.00E+00    1.86E-07    2.02E-08     6.98E+00   2.53E+02   None         0.
   2  -229.242173295  -673.576718743   259.840099460  -6.82E-13    1.92E-07    3.11E-08     2.88E-07   2.53E+02   EDIIS        0.

       Convergence after   2 Macro Iterations
--

 *****************************************************************************************************************************
 *                                                                                                                           *
 *                                             SCF/KS-DFT Program, Final results                                             *
 *                                                                                                                           *
 *                                                                                                                           *
 *                                                                                                                           *
 *                                                       Final Results                                                       *
 *                                                                                                                           *
 *****************************************************************************************************************************

::    Total SCF energy                               -229.2421732951
      One-electron energy                            -673.5767187429
      Two-electron energy                             259.8400994601
      Nuclear repulsion energy                        184.4944459878
      Kinetic energy (interpolated)                   228.7110941500
      Virial theorem                                    1.0023220524
      Total spin, S(S+1)                                0.0000000000
      Total spin, S                                     0.0000000000
      Max non-diagonal density matrix element           0.0000001924
      Max non-diagonal Fock matrix element              0.0000000311


      All orbitals with orbital energies smaller than  E(LUMO)+0.5 are printed

++    Molecular orbitals:
      -------------------

      Title: SCF orbitals

      Molecular orbitals for symmetry species 1: a' 

          Orbital            1         2         3         4         5         6         7         8         9        10    
          Energy          -11.2705  -11.2704  -11.2688  -11.2684  -11.2678  -11.2675   -1.1581   -1.0341   -0.9977   -0.8346
          Occ. No.          2.0000    2.0000    2.0000    2.0000    2.0000    2.0000    2.0000    2.0000    2.0000    2.0000

        1 C1     1s         0.2206   -0.1509   -0.4979    0.4454   -0.4986   -0.4745   -0.0954    0.1110   -0.0712    0.0878
        2 C1     2s         0.0058   -0.0040   -0.0137    0.0122   -0.0138   -0.0133    0.1843   -0.2172    0.1396   -0.1770
        3 C1     *s         0.0008   -0.0034    0.0043   -0.0054    0.0083    0.0133    0.1159   -0.1695    0.1102   -0.1649
        4 C1     2px        0.0002   -0.0001    0.0000   -0.0001    0.0000    0.0001   -0.0476   -0.0113   -0.0667    0.0014
        5 C1     *px       -0.0013    0.0027   -0.0004    0.0011   -0.0008   -0.0033   -0.0038   -0.0079   -0.0033   -0.0261
        6 C1     2py       -0.0000    0.0002    0.0000    0.0000    0.0003    0.0002   -0.0401    0.0613    0.0809   -0.1135
        7 C1     *py       -0.0001    0.0002    0.0004   -0.0004   -0.0012   -0.0023   -0.0050    0.0047    0.0166   -0.0469
        8 C1     *200      -0.0004    0.0003    0.0006   -0.0004    0.0004    0.0003    0.0035   -0.0017    0.0077   -0.0069
        9 C1     *110       0.0001   -0.0001   -0.0000   -0.0001    0.0001    0.0001   -0.0006   -0.0017   -0.0045   -0.0019
       10 C1     *020      -0.0004    0.0003    0.0006   -0.0005    0.0003    0.0002    0.0045   -0.0070   -0.0025    0.0012
       11 C1     *002      -0.0004    0.0003    0.0007   -0.0006    0.0006    0.0005   -0.0051    0.0053   -0.0034    0.0038
       12 C2     1s         0.2223    0.1485   -0.4982    0.4454    0.4986    0.4742   -0.0954    0.1110    0.0712   -0.0878
       13 C2     2s         0.0058    0.0039   -0.0137    0.0122    0.0138    0.0132    0.1843   -0.2172   -0.1396    0.1770
       14 C2     *s         0.0008    0.0034    0.0043   -0.0055   -0.0083   -0.0133    0.1159   -0.1695   -0.1102    0.1649
       15 C2     2px        0.0002    0.0001    0.0000   -0.0001   -0.0000   -0.0001   -0.0496   -0.0080    0.0624    0.0046
       16 C2     *px       -0.0013   -0.0027   -0.0004    0.0011    0.0008    0.0034   -0.0041   -0.0076    0.0024    0.0286
       17 C2     2py        0.0000    0.0002   -0.0000   -0.0000    0.0003    0.0002    0.0376   -0.0618    0.0844   -0.1134
       18 C2     *py        0.0000    0.0001   -0.0004    0.0005   -0.0012   -0.0021    0.0048   -0.0051    0.0167   -0.0455
       19 C2     *200      -0.0004   -0.0003    0.0006   -0.0004   -0.0004   -0.0003    0.0035   -0.0018   -0.0075    0.0069
       20 C2     *110      -0.0001   -0.0001    0.0000    0.0001    0.0001    0.0001    0.0005    0.0023   -0.0056   -0.0010
       21 C2     *020      -0.0004   -0.0003    0.0006   -0.0005   -0.0003   -0.0002    0.0046   -0.0068    0.0023   -0.0013
       22 C2     *002      -0.0004   -0.0003    0.0007   -0.0006   -0.0006   -0.0005   -0.0051    0.0053    0.0034   -0.0038
       23 C3     1s         0.6268   -0.6749    0.0004   -0.3136    0.0002    0.2124   -0.0848   -0.0000   -0.1231   -0.0000
       24 C3     2s         0.0165   -0.0181    0.0000   -0.0085    0.0000    0.0059    0.1648    0.0000    0.2437    0.0000
       25 C3     *s        -0.0067    0.0106   -0.0000    0.0076   -0.0000   -0.0114    0.1002    0.0000    0.1867    0.0000
       26 C3     2px        0.0000   -0.0000    0.0001   -0.0000    0.0001    0.0000    0.0019   -0.1129    0.0019   -0.2040
       27 C3     *px       -0.0000    0.0001   -0.0012    0.0001   -0.0012   -0.0001    0.0003   -0.0094    0.0004   -0.0361
       28 C3     2py       -0.0004    0.0005    0.0000    0.0004    0.0000   -0.0003   -0.0711   -0.0030   -0.0698   -0.0054
       29 C3     *py        0.0018   -0.0030   -0.0000   -0.0020   -0.0000    0.0037   -0.0122   -0.0002   -0.0162   -0.0010
       30 C3     *200      -0.0005    0.0005    0.0000   -0.0000    0.0000    0.0002    0.0050   -0.0003    0.0075   -0.0003
       31 C3     *110       0.0000   -0.0000   -0.0000   -0.0000   -0.0001    0.0000    0.0002    0.0125    0.0005    0.0132
       32 C3     *020      -0.0008    0.0008   -0.0000    0.0003   -0.0000   -0.0000    0.0008    0.0003   -0.0016    0.0003
       33 C3     *002      -0.0008    0.0007   -0.0000    0.0003   -0.0000   -0.0001   -0.0046   -0.0000   -0.0056   -0.0000
       34 C4     1s         0.6341    0.6681    0.0002   -0.3138   -0.0004   -0.2121   -0.0848    0.0000    0.1231   -0.0000
       35 C4     2s         0.0167    0.0179    0.0000   -0.0086   -0.0000   -0.0059    0.1648   -0.0000   -0.2437    0.0000
       36 C4     *s        -0.0068   -0.0105   -0.0000    0.0076    0.0000    0.0114    0.1002   -0.0000   -0.1867    0.0000
       37 C4     2px       -0.0000   -0.0000    0.0001    0.0000   -0.0001    0.0000   -0.0019   -0.1129    0.0019    0.2040
       38 C4     *px        0.0000    0.0001   -0.0012   -0.0001    0.0012   -0.0001   -0.0003   -0.0094    0.0004    0.0361
       39 C4     2py        0.0004    0.0005    0.0000   -0.0004   -0.0000   -0.0003    0.0711   -0.0030   -0.0698    0.0054
       40 C4     *py       -0.0018   -0.0030   -0.0000    0.0020    0.0000    0.0037    0.0122   -0.0002   -0.0162    0.0010
       41 C4     *200      -0.0005   -0.0005   -0.0000   -0.0000    0.0000   -0.0002    0.0050    0.0003   -0.0075   -0.0003
       42 C4     *110       0.0000    0.0000    0.0000   -0.0000   -0.0001   -0.0000    0.0002   -0.0125   -0.0005    0.0132
       43 C4     *020      -0.0008   -0.0008    0.0000    0.0003   -0.0000    0.0000    0.0008   -0.0003    0.0016    0.0003
       44 C4     *002      -0.0008   -0.0007   -0.0000    0.0003    0.0000    0.0001   -0.0046    0.0000    0.0056   -0.0000
       45 C5     1s         0.2205   -0.1509    0.4971    0.4457    0.4978   -0.4760   -0.0954   -0.1110   -0.0712   -0.0878
       46 C5     2s         0.0058   -0.0040    0.0137    0.0122    0.0137   -0.0133    0.1843    0.2172    0.1396    0.1770
       47 C5     *s         0.0008   -0.0034   -0.0043   -0.0054   -0.0083    0.0133    0.1159    0.1695    0.1102    0.1649
       48 C5     2px       -0.0002    0.0001    0.0000    0.0001    0.0000   -0.0001    0.0496   -0.0080    0.0624   -0.0046
       49 C5     *px        0.0013   -0.0027   -0.0004   -0.0011   -0.0008    0.0034    0.0041   -0.0076    0.0024   -0.0286
       50 C5     2py       -0.0000    0.0002   -0.0000    0.0000   -0.0003    0.0002   -0.0376   -0.0618    0.0844    0.1134
       51 C5     *py       -0.0000    0.0001   -0.0004   -0.0005    0.0012   -0.0021   -0.0048   -0.0051    0.0167    0.0455
       52 C5     *200      -0.0003    0.0003   -0.0006   -0.0004   -0.0004    0.0003    0.0035    0.0018    0.0075    0.0069
       53 C5     *110      -0.0001    0.0001   -0.0000    0.0001    0.0001   -0.0001    0.0005   -0.0023    0.0056   -0.0010
       54 C5     *020      -0.0004    0.0003   -0.0006   -0.0005   -0.0003    0.0002    0.0046    0.0068   -0.0023   -0.0013
       55 C5     *002      -0.0004    0.0003   -0.0007   -0.0006   -0.0006    0.0005   -0.0051   -0.0053   -0.0034   -0.0038
       56 C6     1s         0.2222    0.1485    0.4977    0.4466   -0.4969    0.4753   -0.0954   -0.1110    0.0712    0.0878
       57 C6     2s         0.0058    0.0039    0.0137    0.0122   -0.0137    0.0133    0.1843    0.2172   -0.1396   -0.1770
       58 C6     *s         0.0008    0.0034   -0.0043   -0.0055    0.0083   -0.0133    0.1159    0.1695   -0.1102   -0.1649
       59 C6     2px       -0.0002   -0.0001    0.0000    0.0001   -0.0000    0.0001    0.0476   -0.0113   -0.0667   -0.0014
       60 C6     *px        0.0013    0.0027   -0.0004   -0.0011    0.0008   -0.0033    0.0038   -0.0079   -0.0033    0.0261
       61 C6     2py        0.0000    0.0002    0.0000   -0.0000   -0.0003    0.0002    0.0401    0.0613    0.0809    0.1135
       62 C6     *py        0.0001    0.0002    0.0004    0.0004    0.0012   -0.0023    0.0050    0.0047    0.0166    0.0469
       63 C6     *200      -0.0004   -0.0003   -0.0006   -0.0004    0.0004   -0.0003    0.0035    0.0017   -0.0077   -0.0069
       64 C6     *110       0.0001    0.0001    0.0000   -0.0001    0.0001   -0.0001   -0.0006    0.0017    0.0045   -0.0019
       65 C6     *020      -0.0004   -0.0003   -0.0006   -0.0005    0.0003   -0.0002    0.0045    0.0070    0.0025    0.0012
       66 C6     *002      -0.0004   -0.0003   -0.0007   -0.0006    0.0006   -0.0005   -0.0051   -0.0053    0.0034    0.0038
       67 H7     1s        -0.0001    0.0000   -0.0001   -0.0001   -0.0001    0.0001    0.0370    0.0667    0.0439    0.0993
       68 H7     *s         0.0008   -0.0008    0.0008    0.0007    0.0008   -0.0003    0.0029    0.0113    0.0078    0.0284
       69 H8     1s        -0.0001   -0.0000   -0.0001   -0.0001    0.0001   -0.0001    0.0370    0.0667   -0.0439   -0.0993
       70 H8     *s         0.0008    0.0008    0.0008    0.0007   -0.0008    0.0003    0.0029    0.0113   -0.0078   -0.0284
       71 H9     1s        -0.0001    0.0000    0.0001   -0.0001    0.0001    0.0001    0.0370   -0.0667    0.0439   -0.0993
       72 H9     *s         0.0008   -0.0008   -0.0008    0.0007   -0.0008   -0.0003    0.0029   -0.0113    0.0078   -0.0284
       73 H10    1s        -0.0001   -0.0000    0.0001   -0.0001   -0.0001   -0.0001    0.0370   -0.0667   -0.0439    0.0993
       74 H10    *s         0.0008    0.0008   -0.0008    0.0007    0.0008    0.0003    0.0029   -0.0113   -0.0078    0.0284

          Orbital           11        12        13        14        15        16        17        18        19        20    
          Energy           -0.7984   -0.6623   -0.6412   -0.6211   -0.5976   -0.5120   -0.2713   -0.0543    0.2552    0.2773
          Occ. No.          2.0000    2.0000    2.0000    2.0000    2.0000    2.0000    2.0000    0.0000    0.0000    0.0000

        1 C1     1s        -0.0436    0.0074   -0.0383    0.0090    0.0152    0.0049    0.0392    0.0013    0.0488    0.0329
        2 C1     2s         0.0887   -0.0201    0.0774   -0.0185   -0.0353   -0.0140   -0.0989    0.0090   -0.0731   -0.0148
        3 C1     *s         0.0791    0.0101    0.0803   -0.0326   -0.0221   -0.0045   -0.0857   -0.0914   -0.7257   -0.9505
        4 C1     2px        0.1848    0.0911    0.1941    0.2186    0.1108    0.2364    0.0662   -0.0631   -0.0865   -0.1575
        5 C1     *px        0.0662    0.0424    0.1203    0.0909    0.0593    0.1455   -0.1016   -0.0099   -0.3956   -0.4240
        6 C1     2py       -0.0944    0.2307    0.0599   -0.1235    0.2575   -0.0092    0.0142    0.1632   -0.1105   -0.0824
        7 C1     *py       -0.0228    0.0883    0.0327   -0.0498    0.1011   -0.0184    0.0733    0.0826   -0.3659   -0.4283
        8 C1     *200      -0.0012    0.0065    0.0034    0.0008    0.0090    0.0042   -0.0080    0.0097    0.0042   -0.0016
        9 C1     *110       0.0077   -0.0003    0.0199    0.0073    0.0036    0.0232   -0.0060    0.0163    0.0069    0.0091
       10 C1     *020       0.0051   -0.0038    0.0008    0.0015   -0.0056    0.0001    0.0093   -0.0082   -0.0011    0.0011
       11 C1     *002      -0.0019    0.0001   -0.0018    0.0001   -0.0000   -0.0004   -0.0007    0.0004   -0.0002    0.0022
       12 C2     1s        -0.0436    0.0074    0.0383    0.0090    0.0152   -0.0049   -0.0392    0.0013    0.0488    0.0329
       13 C2     2s         0.0888   -0.0201   -0.0774   -0.0185   -0.0353    0.0140    0.0989    0.0090   -0.0731   -0.0148
       14 C2     *s         0.0791    0.0101   -0.0803   -0.0326   -0.0221    0.0045    0.0857   -0.0914   -0.7257   -0.9505
       15 C2     2px        0.1796    0.1032   -0.1970    0.2117    0.1243   -0.2356   -0.0669   -0.0544   -0.0923   -0.1617
       16 C2     *px        0.0649    0.0470   -0.1218    0.0881    0.0646   -0.1443    0.0976   -0.0055   -0.4145   -0.4461
       17 C2     2py        0.1040   -0.2255    0.0495    0.1349   -0.2513   -0.0217    0.0107   -0.1664    0.1057    0.0740
       18 C2     *py        0.0263   -0.0859    0.0263    0.0546   -0.0978   -0.0261    0.0786   -0.0830    0.3444    0.4052
       19 C2     *200      -0.0008    0.0065   -0.0044    0.0012    0.0092   -0.0054    0.0083    0.0105    0.0046   -0.0011
       20 C2     *110      -0.0083    0.0014    0.0196   -0.0074   -0.0021    0.0227   -0.0042   -0.0143   -0.0063   -0.0093
       21 C2     *020       0.0046   -0.0037    0.0002    0.0011   -0.0058    0.0011   -0.0096   -0.0090   -0.0014    0.0006
       22 C2     *002      -0.0019    0.0001    0.0018    0.0001   -0.0000    0.0004    0.0007    0.0004   -0.0002    0.0022
       23 C3     1s         0.0936   -0.0532    0.0608    0.0000   -0.0000    0.0000   -0.0547    0.0485   -0.0073    0.0000
       24 C3     2s        -0.1936    0.1095   -0.1283   -0.0000    0.0000   -0.0000    0.1066   -0.0784    0.0061   -0.0000
       25 C3     *s        -0.1460    0.1326   -0.0734   -0.0000    0.0000   -0.0000    0.0554   -0.2299    0.0492   -0.0000
       26 C3     2px       -0.0011   -0.0026   -0.0018   -0.2841    0.0578   -0.2592   -0.0095    0.0083   -0.0002   -0.0194
       27 C3     *px        0.0002   -0.0012   -0.0000   -0.0724    0.0245   -0.0667   -0.0101    0.0097   -0.0078    0.2752
       28 C3     2py        0.0406    0.0994    0.0688   -0.0075    0.0015   -0.0069    0.3577   -0.3145    0.0068   -0.0005
       29 C3     *py       -0.0088    0.0468    0.0015   -0.0019    0.0006   -0.0018    0.3827   -0.3660    0.2950    0.0073
       30 C3     *200      -0.0026    0.0065    0.0025   -0.0005   -0.0002   -0.0005   -0.0020    0.0062   -0.0104    0.0003
       31 C3     *110      -0.0002    0.0008    0.0002    0.0175    0.0090    0.0181    0.0003    0.0002   -0.0009   -0.0117
       32 C3     *020       0.0011   -0.0083   -0.0021    0.0005    0.0002    0.0005   -0.0085    0.0027    0.0066   -0.0003
       33 C3     *002       0.0032   -0.0005    0.0020   -0.0000   -0.0000   -0.0000    0.0033   -0.0024    0.0007   -0.0000
       34 C4     1s         0.0936   -0.0532   -0.0608   -0.0000    0.0000   -0.0000    0.0547    0.0485   -0.0073    0.0000
       35 C4     2s        -0.1936    0.1095    0.1283    0.0000   -0.0000    0.0000   -0.1066   -0.0784    0.0061    0.0000
       36 C4     *s        -0.1460    0.1326    0.0734    0.0000   -0.0000   -0.0000   -0.0554   -0.2299    0.0492   -0.0000
       37 C4     2px        0.0011    0.0026   -0.0018   -0.2841    0.0578    0.2592   -0.0095   -0.0083    0.0002   -0.0194
       38 C4     *px       -0.0002    0.0012   -0.0000   -0.0724    0.0245    0.0667   -0.0101   -0.0097    0.0078    0.2752
       39 C4     2py       -0.0406   -0.0994    0.0688   -0.0075    0.0015    0.0069    0.3577    0.3145   -0.0068   -0.0005
       40 C4     *py        0.0088   -0.0468    0.0015   -0.0019    0.0006    0.0018    0.3827    0.3660   -0.2950    0.0073
       41 C4     *200      -0.0026    0.0065   -0.0025    0.0005    0.0002   -0.0005    0.0020    0.0062   -0.0104   -0.0003
       42 C4     *110      -0.0002    0.0008   -0.0002   -0.0175   -0.0090    0.0181   -0.0003    0.0002   -0.0009    0.0117
       43 C4     *020       0.0011   -0.0083    0.0021   -0.0005   -0.0002    0.0005    0.0085    0.0027    0.0066    0.0003
       44 C4     *002       0.0032   -0.0005   -0.0020    0.0000    0.0000   -0.0000   -0.0033   -0.0024    0.0007   -0.0000
       45 C5     1s        -0.0436    0.0074   -0.0383   -0.0090   -0.0152   -0.0049    0.0392    0.0013    0.0488   -0.0329
       46 C5     2s         0.0888   -0.0201    0.0774    0.0185    0.0353    0.0140   -0.0989    0.0090   -0.0731    0.0148
       47 C5     *s         0.0791    0.0101    0.0803    0.0326    0.0221    0.0045   -0.0857   -0.0914   -0.7256    0.9505
       48 C5     2px       -0.1796   -0.1032   -0.1970    0.2117    0.1243    0.2356   -0.0669    0.0544    0.0923   -0.1617
       49 C5     *px       -0.0649   -0.0470   -0.1218    0.0881    0.0646    0.1443    0.0976    0.0055    0.4144   -0.4461
       50 C5     2py       -0.1040    0.2256    0.0495    0.1349   -0.2513    0.0217    0.0107    0.1664   -0.1057    0.0740
       51 C5     *py       -0.0263    0.0859    0.0263    0.0546   -0.0978    0.0261    0.0786    0.0830   -0.3444    0.4052
       52 C5     *200      -0.0008    0.0065    0.0044   -0.0012   -0.0092   -0.0054   -0.0083    0.0105    0.0046    0.0011
       53 C5     *110      -0.0083    0.0014   -0.0196    0.0074    0.0021    0.0227    0.0042   -0.0143   -0.0063    0.0093
       54 C5     *020       0.0046   -0.0037   -0.0002   -0.0011    0.0058    0.0011    0.0096   -0.0090   -0.0014   -0.0006
       55 C5     *002      -0.0019    0.0001   -0.0018   -0.0001    0.0000    0.0004   -0.0007    0.0004   -0.0002   -0.0022
       56 C6     1s        -0.0436    0.0074    0.0383   -0.0090   -0.0152    0.0049   -0.0392    0.0013    0.0488   -0.0329
       57 C6     2s         0.0887   -0.0201   -0.0774    0.0185    0.0353   -0.0140    0.0989    0.0090   -0.0731    0.0148
       58 C6     *s         0.0791    0.0101   -0.0803    0.0326    0.0221   -0.0045    0.0857   -0.0914   -0.7256    0.9505
       59 C6     2px       -0.1848   -0.0911    0.1942    0.2186    0.1108   -0.2364    0.0662    0.0631    0.0865   -0.1575
       60 C6     *px       -0.0662   -0.0424    0.1203    0.0909    0.0593   -0.1455   -0.1016    0.0099    0.3956   -0.4241
       61 C6     2py        0.0944   -0.2307    0.0599   -0.1235    0.2575    0.0092    0.0142   -0.1632    0.1105   -0.0824
       62 C6     *py        0.0228   -0.0883    0.0327   -0.0498    0.1011    0.0184    0.0733   -0.0826    0.3659   -0.4283
       63 C6     *200      -0.0012    0.0065   -0.0034   -0.0008   -0.0090    0.0042    0.0080    0.0097    0.0042    0.0016
       64 C6     *110       0.0077   -0.0003   -0.0199   -0.0073   -0.0036    0.0232    0.0060    0.0163    0.0069   -0.0091
       65 C6     *020       0.0051   -0.0038   -0.0008   -0.0015    0.0056    0.0001   -0.0093   -0.0082   -0.0011   -0.0011
       66 C6     *002      -0.0019    0.0001    0.0018   -0.0001    0.0000   -0.0004    0.0007    0.0004   -0.0002   -0.0022
       67 H7     1s         0.0913    0.1037    0.1580   -0.0667   -0.1249   -0.1399   -0.0174    0.0744    0.0156   -0.0118
       68 H7     *s         0.0402    0.0639    0.0896   -0.0486   -0.0881   -0.1152    0.0248    0.1318    1.0497   -1.1541
       69 H8     1s         0.0913    0.1037   -0.1580   -0.0667   -0.1249    0.1399    0.0174    0.0744    0.0156   -0.0118
       70 H8     *s         0.0402    0.0639   -0.0896   -0.0486   -0.0881    0.1152   -0.0248    0.1318    1.0497   -1.1542
       71 H9     1s         0.0913    0.1037    0.1580    0.0667    0.1249    0.1399   -0.0174    0.0744    0.0156    0.0118
       72 H9     *s         0.0402    0.0639    0.0896    0.0486    0.0881    0.1152    0.0248    0.1318    1.0497    1.1540
       73 H10    1s         0.0913    0.1037   -0.1580    0.0667    0.1249   -0.1399    0.0174    0.0744    0.0156    0.0118
       74 H10    *s         0.0402    0.0639   -0.0896    0.0486    0.0881   -0.1152   -0.0248    0.1318    1.0498    1.1541

          Orbital           21        22        23    
          Energy            0.3023    0.3175    0.4127
          Occ. No.          0.0000    0.0000    0.0000

        1 C1     1s        -0.0460    0.0664   -0.0448
        2 C1     2s         0.1097   -0.0855    0.0238
        3 C1     *s         0.0313   -1.2244    1.2336
        4 C1     2px        0.0927   -0.0966   -0.0606
        5 C1     *px        1.2566   -0.7402   -0.9785
        6 C1     2py        0.0683   -0.0154   -0.0127
        7 C1     *py        0.5108   -0.1338    0.4011
        8 C1     *200      -0.0066   -0.0042   -0.0073
        9 C1     *110       0.0054   -0.0059    0.0173
       10 C1     *020      -0.0018    0.0059    0.0105
       11 C1     *002       0.0032    0.0007   -0.0023
       12 C2     1s         0.0460   -0.0664   -0.0448
       13 C2     2s        -0.1097    0.0855    0.0238
       14 C2     *s        -0.0313    1.2244    1.2336
       15 C2     2px       -0.0961    0.0973   -0.0612
       16 C2     *px       -1.2818    0.7462   -0.9559
       17 C2     2py        0.0633   -0.0102    0.0095
       18 C2     *py        0.4435   -0.0944   -0.4524
       19 C2     *200       0.0063    0.0045   -0.0063
       20 C2     *110       0.0059   -0.0048   -0.0191
       21 C2     *020       0.0021   -0.0062    0.0095
       22 C2     *002      -0.0032   -0.0007   -0.0023
       23 C3     1s         0.0044   -0.0000    0.1082
       24 C3     2s        -0.0931   -0.0000   -0.1120
       25 C3     *s         1.2305    0.0001   -2.7060
       26 C3     2px       -0.0024    0.0593   -0.0017
       27 C3     *px        0.0164    0.2727   -0.0291
       28 C3     2py        0.0906    0.0016    0.0658
       29 C3     *py       -0.6177    0.0072    1.0996
       30 C3     *200       0.0101   -0.0002   -0.0073
       31 C3     *110       0.0006    0.0091   -0.0003
       32 C3     *020      -0.0009    0.0002   -0.0007
       33 C3     *002      -0.0059   -0.0000    0.0014
       34 C4     1s        -0.0044   -0.0000    0.1082
       35 C4     2s         0.0931    0.0000   -0.1120
       36 C4     *s        -1.2305   -0.0001   -2.7060
       37 C4     2px       -0.0024   -0.0593    0.0017
       38 C4     *px        0.0164   -0.2727    0.0291
       39 C4     2py        0.0906   -0.0016   -0.0658
       40 C4     *py       -0.6177   -0.0073   -1.0996
       41 C4     *200      -0.0101   -0.0002   -0.0073
       42 C4     *110      -0.0006    0.0091   -0.0003
       43 C4     *020       0.0009    0.0002   -0.0007
       44 C4     *002       0.0059    0.0000    0.0014
       45 C5     1s        -0.0460   -0.0664   -0.0448
       46 C5     2s         0.1097    0.0856    0.0238
       47 C5     *s         0.0312    1.2244    1.2336
       48 C5     2px       -0.0961   -0.0973    0.0612
       49 C5     *px       -1.2818   -0.7464    0.9559
       50 C5     2py        0.0633    0.0103   -0.0095
       51 C5     *py        0.4435    0.0944    0.4524
       52 C5     *200      -0.0063    0.0045   -0.0063
       53 C5     *110      -0.0059   -0.0048   -0.0191
       54 C5     *020      -0.0021   -0.0062    0.0095
       55 C5     *002       0.0032   -0.0007   -0.0023
       56 C6     1s         0.0460    0.0664   -0.0448
       57 C6     2s        -0.1097   -0.0856    0.0238
       58 C6     *s        -0.0312   -1.2244    1.2336
       59 C6     2px        0.0926    0.0966    0.0606
       60 C6     *px        1.2565    0.7403    0.9785
       61 C6     2py        0.0683    0.0154    0.0127
       62 C6     *py        0.5108    0.1338   -0.4011
       63 C6     *200       0.0066   -0.0042   -0.0073
       64 C6     *110      -0.0054   -0.0059    0.0173
       65 C6     *020       0.0018    0.0059    0.0105
       66 C6     *002      -0.0032    0.0007   -0.0023
       67 H7     1s        -0.0213    0.0066    0.0234
       68 H7     *s        -1.4370   -1.2580    0.1940
       69 H8     1s         0.0213   -0.0066    0.0234
       70 H8     *s         1.4370    1.2579    0.1940
       71 H9     1s        -0.0213   -0.0066    0.0234
       72 H9     *s        -1.4372    1.2579    0.1940
       73 H10    1s         0.0213    0.0066    0.0234
       74 H10    *s         1.4371   -1.2578    0.1940

      Molecular orbitals for symmetry species 2: a" 

          Orbital            1         2         3         4         5         6    
          Energy           -0.5123   -0.3572   -0.3370    0.1231    0.1427    0.3552
          Occ. No.          2.0000    2.0000    2.0000    0.0000    0.0000    0.0000

        1 C1     2pz        0.2187   -0.2775   -0.1672   -0.2775   -0.1537   -0.2423
        2 C1     *pz        0.1434   -0.2264   -0.1519   -0.4780   -0.2704   -0.6440
        3 C1     *101      -0.0096    0.0003    0.0141    0.0006   -0.0217   -0.0170
        4 C1     *011      -0.0075    0.0149   -0.0136   -0.0178    0.0238   -0.0071
        5 C2     2pz        0.2187   -0.2775    0.1672    0.2774   -0.1537    0.2423
        6 C2     *pz        0.1434   -0.2264    0.1518    0.4780   -0.2704    0.6440
        7 C2     *101      -0.0099    0.0011   -0.0133    0.0004   -0.0205    0.0173
        8 C2     *011       0.0070   -0.0149   -0.0143   -0.0178   -0.0249   -0.0062
        9 C3     2pz        0.2034    0.0000   -0.3140    0.0000    0.3274    0.2611
       10 C3     *pz        0.1163    0.0000   -0.2389    0.0000    0.5534    0.6513
       11 C3     *101       0.0004   -0.0211   -0.0004   -0.0324   -0.0000   -0.0002
       12 C3     *011      -0.0151   -0.0006    0.0152   -0.0009    0.0011    0.0081
       13 C4     2pz        0.2034   -0.0000    0.3140    0.0000    0.3274   -0.2611
       14 C4     *pz        0.1163   -0.0000    0.2389    0.0000    0.5534   -0.6513
       15 C4     *101      -0.0004   -0.0211   -0.0004    0.0324    0.0000   -0.0002
       16 C4     *011       0.0151   -0.0006    0.0152    0.0009   -0.0011    0.0081
       17 C5     2pz        0.2187    0.2775   -0.1672    0.2774   -0.1537   -0.2423
       18 C5     *pz        0.1434    0.2264   -0.1518    0.4780   -0.2704   -0.6440
       19 C5     *101       0.0099    0.0011   -0.0133   -0.0004    0.0205    0.0173
       20 C5     *011      -0.0070   -0.0149   -0.0143    0.0178    0.0249   -0.0062
       21 C6     2pz        0.2187    0.2775    0.1672   -0.2775   -0.1537    0.2423
       22 C6     *pz        0.1434    0.2264    0.1519   -0.4780   -0.2704    0.6440
       23 C6     *101       0.0096    0.0003    0.0141   -0.0006    0.0217   -0.0170
       24 C6     *011       0.0075    0.0149   -0.0136    0.0178   -0.0238   -0.0071
--


++    Molecular charges:
      ------------------

      Mulliken charges per centre and basis function type
      ---------------------------------------------------

                C1      C2      C3      C4      C5      C6      H7      H8      H9      H10   
      1s       1.9968  1.9968  1.9970  1.9970  1.9968  1.9968  0.5133  0.5133  0.5133  0.5133
      2s       0.6918  0.6918  0.7034  0.7034  0.6918  0.6918  0.0000  0.0000  0.0000  0.0000
      2px      0.7480  0.7507  0.7523  0.7523  0.7507  0.7480  0.0000  0.0000  0.0000  0.0000
      2pz      0.5429  0.5429  0.5007  0.5007  0.5429  0.5429  0.0000  0.0000  0.0000  0.0000
      2py      0.6626  0.6600  0.5360  0.5360  0.6600  0.6626  0.0000  0.0000  0.0000  0.0000
      *s       0.5164  0.5164  0.4978  0.4978  0.5164  0.5164  0.2466  0.2466  0.2466  0.2466
      *px      0.3174  0.3220  0.1194  0.1194  0.3220  0.3174  0.0000  0.0000  0.0000  0.0000
      *110     0.0164  0.0160  0.0156  0.0156  0.0160  0.0164  0.0000  0.0000  0.0000  0.0000
      *020     0.0198  0.0193 -0.0080 -0.0080  0.0193  0.0198  0.0000  0.0000  0.0000  0.0000
      *002    -0.0191 -0.0191 -0.0146 -0.0146 -0.0191 -0.0191  0.0000  0.0000  0.0000  0.0000
      *200     0.0290  0.0299  0.0250  0.0250  0.0299  0.0290  0.0000  0.0000  0.0000  0.0000
      *pz      0.4864  0.4864  0.4086  0.4086  0.4864  0.4864  0.0000  0.0000  0.0000  0.0000
      *py      0.2343  0.2297  0.4294  0.4294  0.2297  0.2343  0.0000  0.0000  0.0000  0.0000
      *101     0.0039  0.0037  0.0069  0.0069  0.0037  0.0039  0.0000  0.0000  0.0000  0.0000
      *011     0.0065  0.0067  0.0043  0.0043  0.0067  0.0065  0.0000  0.0000  0.0000  0.0000
      Total    6.2531  6.2531  5.9740  5.9740  6.2531  6.2531  0.7598  0.7598  0.7599  0.7598

      N-E     -0.2531 -0.2531  0.0260  0.0260 -0.2531 -0.2531  0.2402  0.2402  0.2401  0.2402

      Total electronic charge=   40.000000

      Total            charge=   -0.000000
--


++    Molecular properties:
      ---------------------

      Charge (e):
                      =   -0.0000
      Dipole Moment (Debye):
      Origin of the operator (Ang)=    0.0000    0.0000    0.0000
                   X= -4.2406E-07               Y= -1.9687E-05               Z=  0.0000E+00           Total=  1.9691E-05
      Quadrupole Moment (Debye*Ang):
      Origin of the operator (Ang)=    1.4092    1.2813    0.0000
                  XX= -2.6179E+01              XY=  3.0130E-01              XZ=  0.0000E+00              YY= -3.7540E+01
                  YZ=  0.0000E+00              ZZ= -3.8555E+01
      In traceless form (Debye*Ang)
                  XX=  1.1869E+01              XY=  4.5196E-01              XZ=  0.0000E+00              YY= -5.1731E+00
                  YZ=  0.0000E+00              ZZ= -6.6957E+00
--


      Input file to MOLDEN was generated!

 ###############################################################################
 ###############################################################################
 ###                                                                         ###
 ###                                                                         ###
 ###    WARNING: RunFile label nBas                                          ###
 ###    was used       60 times                                              ###
 ###                                                                         ###
 ###                                                                         ###
 ###############################################################################
 ###############################################################################
--- Stop Module: scf at Tue Jun 25 14:35:17 2024 /rc=_RC_ALL_IS_WELL_ ---
*** files: product.scf.molden product.ScfOrb xmldump
    saved to directory /home/kenya/molcas_test/0625

*** symbolic link created: INPORB -> product.ScfOrb
--- Start Module: rasscf at Tue Jun 25 14:35:17 2024 ---

()()()()()()()()()()()()()()()()()()()()()()()()()()()()()()()()()()()()()()()()()()()()()()()()()()

                                              &RASSCF

                                   only a single process is used
                       available to each process: 2.0 GB of memory, 1 thread
                                             pid: 64772
()()()()()()()()()()()()()()()()()()()()()()()()()()()()()()()()()()()()()()()()()()()()()()()()()()


      Header of the ONEINT file:
      --------------------------
      
      Integrals generated by Gateway/Seward, Tue Jun 25 14:35:13 2024


      OrdInt status: non-squared


      Cartesian coordinates in Angstrom:
      -----------------------------------------------------
      No.  Label        X            Y            Z        
      -----------------------------------------------------
       1   C1         2.60146000   2.01277000   0.00000000
       2   C2         2.63853000   0.61403000   0.00000000
       3   C3         1.37214000   2.67919000   0.00000000
       4   C4         1.44624000  -0.11657000   0.00000000
       5   C5         0.17985000   1.94859000   0.00000000
       6   C6         0.21692000   0.54985000   0.00000000
       7   H7        -0.76929000   2.46762000   0.00000000
       8   H8        -0.70340000  -0.01873000   0.00000000
       9   H9         3.52178000   2.58135000   0.00000000
      10   H10        3.58768000   0.09499000   0.00000000
      -----------------------------------------------------
      Nuclear repulsion energy =  184.49444599

++    Wave function specifications:
      -----------------------------

      Number of closed shell electrons          28
      Number of electrons in active shells      12
      Max number of holes in RAS1 space          0
      Max nr of electrons in RAS3 space          0
      Number of inactive orbitals               14
      Number of active orbitals                 12
      Number of secondary orbitals              72
      Spin quantum number                      0.0
      State symmetry                             1
--

++    Orbital specifications:
      -----------------------

      Symmetry species                           1   2
                                                a'  a"
      Frozen orbitals                            0   0
      Inactive orbitals                         14   0
      Active orbitals                            6   6
      RAS1 orbitals                              0   0
      RAS2 orbitals                              6   6
      RAS3 orbitals                              0   0
      Secondary orbitals                        54  18
      Deleted orbitals                           0   0
      Number of basis functions                 74  24
--

++    CI expansion specifications:
      ----------------------------

      Number of CSFs                        113456
      Number of determinants                214006
      Number of root(s) required                 1
      Root chosen for geometry opt.              1
      CI root used                               1
         
      highest root included in the CI            1
      max. size of the explicit Hamiltonian    200
--

++    Optimization specifications:
      ----------------------------

      RASSCF algorithm: Conventional
      Maximum number of macro iterations       200
      Maximum number of SX iterations          100
      Threshold for RASSCF energy            1.000E-08
      Threshold for max MO rotation          1.000E-01
      Threshold for max BLB element          1.000E-04
      Level shift parameter                  5.000E-01
      Make Quasi-Newton update
--

      The MO-coefficients are taken from the file:
      INPORB                                                                                                                                                                                                                                                          
      Title: SCF orbitals                                                                  

      Total molecular charge    0.00

      Molecular orbitals exchanged:
        In symmetry  1 :  12  16
        In symmetry  1 :  19  24
        In symmetry  1 :  20  27


      ************************************************************************************************************************
      *                                                                                                                      *
      *                                            Wave function control section                                             *
      *                                                                                                                      *
      ************************************************************************************************************************


                                         RASSCF iterations: Energy and convergence statistics
                                         ----------------------------------------------------

      Iter CI   SX   CI       RASSCF       Energy    max ROT     max BLB   max BLB  Level Ln srch  Step   QN   Walltime
          iter iter root      energy       change     param      element    value   shift minimum  type update hh:mm:ss
 Nr of preliminary CI iterations:   5
 ###############################################################################
 ###############################################################################
 ###                                                                         ###
 ###                                                                         ###
 ###    WARNING: Large orbital rotation.                                     ###
 ###                                                                         ###
 ###                                                                         ###
 ###############################################################################
 ###############################################################################
      Molecular orbital  20 of symmetry 1 MO space 2  weight is    0.380255
        1   1   13    1  -229.45191261    0.00E+00   4.84E-01*  18  32 1 -5.68E-02*  0.18   0.00    SX    NO    0:00:11
        2   5   15    1  -229.51084215   -5.89E-02*  1.69E-01*   7  18 1 -1.77E-02*  0.19   0.00    SX    NO    0:00:07
        3   3   14    1  -229.52505504   -1.42E-02*  7.76E-02    7  18 1 -1.32E-02*  0.19   0.00    SX    NO    0:00:05
        4   4   14    1  -229.52947283   -4.42E-03*  5.08E-02    7  18 1 -7.75E-03*  0.19   0.00    SX    NO    0:00:07
        5   4   12    1  -229.53108993   -1.62E-03*  5.49E-02    7  18 1 -4.57E-03*  0.19   2.48    LS   YES    0:00:08
        6   4   11    1  -229.53198407   -8.94E-04* -3.03E-02   10  19 1 -2.42E-03*  0.19   1.44    QN   YES    0:00:06
        7   4   10    1  -229.53221188   -2.28E-04* -1.58E-02   15  39 1 -1.17E-03*  0.19   1.42    QN   YES    0:00:06
        8   4    9    1  -229.53226587   -5.40E-05*  3.84E-03   16  24 1 -4.40E-04*  0.19   1.27    QN   YES    0:00:06
        9   3    8    1  -229.53227235   -6.48E-06* -8.69E-04   10  19 1  1.42E-04*  0.19   1.14    QN   YES    0:00:05
       10   4    7    1  -229.53227280   -4.54E-07* -5.67E-04   10  19 1  5.78E-05   0.19   1.22    QN   YES    0:00:06
       11   3    6    1  -229.53227287   -6.68E-08* -2.52E-04   15  25 1  1.44E-05   0.19   1.18    QN   YES    0:00:06
       12   2    6    1  -229.53227288   -1.32E-08* -1.70E-04   14  27 1 -9.49E-06   0.19   1.45    QN   YES    0:00:05
       13   1    4    1  -229.53227289   -3.14E-09   2.35E-05   14  25 1 -6.01E-06   0.19   1.06    QN   YES    0:00:05
      Convergence after 13 iterations
       14   1    4    1  -229.53227289   -3.06E-10   2.35E-05   12  22 1 -1.65E-06   0.19   1.06    QN   YES    0:00:06

      ************************************************************************************************************************
                                                      Wave function printout:
                       occupation of active orbitals, and spin coupling of open shells (u,d: Spin up or down)
      ************************************************************************************************************************

      Note: transformation to natural orbitals
      has been made, which may change the order of the CSFs.

      printout of CI-coefficients larger than  0.05 for root  1
      energy=    -229.532273
      conf/sym  111111222222     Coeff  Weight
         22718  222000 222000   0.72476 0.52528
         22725  222000 202200  -0.09292 0.00863
         22732  222000 2udud0   0.07778 0.00605
         22737  222000 2uudd0   0.09133 0.00834
         22748  222000 220020  -0.11908 0.01418
         22775  222000 ud2u0d  -0.07769 0.00604
         22790  222000 u2d0ud   0.07759 0.00602
         23418  220200 222000  -0.55354 0.30641
         23425  220200 202200   0.07300 0.00533
         23432  220200 2udud0  -0.06136 0.00377
         23437  220200 2uudd0  -0.07932 0.00629
         23448  220200 220020   0.10854 0.01178
         23475  220200 ud2u0d   0.05862 0.00344
         23490  220200 u2d0ud  -0.06542 0.00428
         53574  22uu00 22d0d0   0.16899 0.02856

      Natural orbitals and occupation numbers for root  1
      sym 1:   1.980073   1.979795   1.244136   0.759339   0.018360   0.017662
      sym 2:   1.955756   1.909955   1.860837   0.092341   0.139610   0.042136

      ************************************************************************************************************************
      *                                                                                                                      *
      *                                                    Final results                                                     *
      *                                                                                                                      *
      ************************************************************************************************************************


++    Wave function specifications:
      -----------------------------

      Number of closed shell electrons          28
      Number of electrons in active shells      12
      Max number of holes in RAS1 space          0
      Max nr of electrons in RAS3 space          0
      Number of inactive orbitals               14
      Number of active orbitals                 12
      Number of secondary orbitals              72
      Spin quantum number                      0.0
      State symmetry                             1
--

++    Orbital specifications:
      -----------------------

      Symmetry species                           1   2
                                                a'  a"
      Frozen orbitals                            0   0
      Inactive orbitals                         14   0
      Active orbitals                            6   6
      RAS1 orbitals                              0   0
      RAS2 orbitals                              6   6
      RAS3 orbitals                              0   0
      Secondary orbitals                        54  18
      Deleted orbitals                           0   0
      Number of basis functions                 74  24
--

++    CI expansion specifications:
      ----------------------------

      Number of CSFs                        113456
      Number of determinants                214006
      Number of root(s) required                 1
      CI root used                               1
      highest root included in the CI            1
      Root passed to geometry opt.               1
--

++    Final optimization conditions:
      ------------------------------

      Average CI energy                            -229.53227289
      RASSCF energy for state  1                   -229.53227289
      Super-CI energy                                -0.00000000
      RASSCF energy change                            0.00000000
      Max change in MO coefficients               3.708E-05
      Max non-diagonal density matrix element     2.346E-05
      Maximum BLB matrix element                 -1.653E-06
      (orbital pair  12,  22 in symmetry   1)
      Norm of electronic gradient            5.298E-06
--


      Final state energy(ies):
      ------------------------

::    RASSCF root number  1 Total energy:   -229.53227289

++    Molecular orbitals:
      -------------------

      Pseudonatural active orbitals and approximate occupation numbers




      Molecular orbitals for symmetry species 1: a' 


      Orbital                 1         2         3         4         5         6         7         8         9        10
      Energy           -11.2433  -11.2433  -11.2344  -11.2343  -11.2332  -11.2332   -1.0798   -0.9804   -0.8921   -0.8213
      Occ. No.           2.0000    2.0000    2.0000    2.0000    2.0000    2.0000    2.0000    2.0000    2.0000    2.0000

     1 C1     1s        -0.0397    0.0442   -0.4995    0.4937   -0.5011   -0.4933   -0.0740   -0.0727    0.0879    0.0872
     2 C1     2s        -0.0009    0.0012   -0.0141    0.0137   -0.0142   -0.0140    0.1383    0.1415   -0.1666   -0.1727
     3 C1     *s        -0.0063    0.0028    0.0043   -0.0048    0.0084    0.0122    0.0843    0.1041   -0.1436   -0.1620
     4 C1     2px       -0.0001    0.0001    0.0001   -0.0001    0.0001    0.0001   -0.0734   -0.0701   -0.0071    0.0045
     5 C1     *px        0.0033   -0.0016   -0.0005    0.0006   -0.0010   -0.0027   -0.0102    0.0018   -0.0101   -0.0198
     6 C1     2py        0.0001   -0.0004    0.0000    0.0001    0.0002    0.0002    0.0630    0.0831   -0.1045   -0.1151
     7 C1     *py        0.0007   -0.0001    0.0004   -0.0004   -0.0013   -0.0021    0.0307    0.0208   -0.0587   -0.0540
     8 C1     *200       0.0002   -0.0002    0.0006   -0.0005    0.0005    0.0004    0.0063    0.0082   -0.0057   -0.0069
     9 C1     *110      -0.0001    0.0001    0.0000   -0.0001    0.0001    0.0001   -0.0021   -0.0046   -0.0016   -0.0016
    10 C1     *020       0.0002   -0.0002    0.0007   -0.0006    0.0004    0.0003    0.0013   -0.0027   -0.0030    0.0008
    11 C1     *002       0.0001   -0.0001    0.0007   -0.0007    0.0007    0.0006   -0.0040   -0.0032    0.0043    0.0036
    12 C2     1s         0.0396    0.0442   -0.4996    0.4939    0.5010    0.4932   -0.0740    0.0727    0.0879   -0.0872
    13 C2     2s         0.0009    0.0012   -0.0141    0.0137    0.0142    0.0140    0.1383   -0.1415   -0.1666    0.1727
    14 C2     *s         0.0063    0.0028    0.0043   -0.0048   -0.0084   -0.0122    0.0843   -0.1041   -0.1436    0.1620
    15 C2     2px        0.0001    0.0001    0.0001   -0.0001   -0.0001   -0.0001   -0.0699    0.0656   -0.0126    0.0016
    16 C2     *px       -0.0034   -0.0016   -0.0005    0.0005    0.0010    0.0029   -0.0085   -0.0029   -0.0132    0.0226
    17 C2     2py        0.0001    0.0004   -0.0000   -0.0001    0.0001    0.0002   -0.0668    0.0867    0.1040   -0.1152
    18 C2     *py        0.0005   -0.0000   -0.0005    0.0005   -0.0012   -0.0020   -0.0312    0.0206    0.0581   -0.0528
    19 C2     *200      -0.0002   -0.0002    0.0006   -0.0006   -0.0005   -0.0004    0.0062   -0.0079   -0.0058    0.0069
    20 C2     *110      -0.0001   -0.0001   -0.0000    0.0001    0.0001    0.0001    0.0026   -0.0057    0.0013   -0.0008
    21 C2     *020      -0.0003   -0.0002    0.0007   -0.0006   -0.0003   -0.0003    0.0014    0.0024   -0.0030   -0.0008
    22 C2     *002      -0.0001   -0.0001    0.0007   -0.0007   -0.0007   -0.0006   -0.0040    0.0032    0.0043   -0.0036
    23 C3     1s        -0.7022    0.7011    0.0003   -0.0633    0.0003    0.0568   -0.1143   -0.1196    0.0000    0.0000
    24 C3     2s        -0.0194    0.0190    0.0000   -0.0019    0.0000    0.0017    0.2237    0.2338   -0.0000   -0.0000
    25 C3     *s         0.0130   -0.0093   -0.0000    0.0046   -0.0001   -0.0090    0.1544    0.1832   -0.0000   -0.0000
    26 C3     2px       -0.0000    0.0000    0.0002   -0.0000    0.0001    0.0000    0.0021    0.0025   -0.1904   -0.2044
    27 C3     *px        0.0001   -0.0001   -0.0012    0.0000   -0.0012   -0.0001    0.0006    0.0011   -0.0330   -0.0316
    28 C3     2py        0.0008   -0.0008    0.0000    0.0002    0.0000   -0.0002   -0.0775   -0.0938   -0.0050   -0.0054
    29 C3     *py       -0.0034    0.0021   -0.0000   -0.0012   -0.0000    0.0029   -0.0213   -0.0409   -0.0009   -0.0008
    30 C3     *200       0.0006   -0.0006    0.0000   -0.0002    0.0000    0.0003    0.0076    0.0081   -0.0003   -0.0004
    31 C3     *110      -0.0000    0.0000   -0.0000   -0.0000   -0.0002    0.0000    0.0005    0.0005    0.0111    0.0137
    32 C3     *020       0.0009   -0.0009   -0.0000   -0.0000   -0.0000    0.0002   -0.0012   -0.0012    0.0003    0.0004
    33 C3     *002       0.0009   -0.0009   -0.0000    0.0000    0.0000    0.0000   -0.0051   -0.0052    0.0000    0.0000
    34 C4     1s         0.7017    0.7016    0.0002   -0.0633   -0.0004   -0.0567   -0.1143    0.1196   -0.0000   -0.0000
    35 C4     2s         0.0194    0.0190    0.0000   -0.0019   -0.0000   -0.0017    0.2237   -0.2338    0.0000    0.0000
    36 C4     *s        -0.0130   -0.0094   -0.0000    0.0046    0.0001    0.0090    0.1544   -0.1832    0.0000    0.0000
    37 C4     2px       -0.0000   -0.0000    0.0002    0.0000   -0.0001    0.0000   -0.0021    0.0025   -0.1904    0.2044
    38 C4     *px        0.0001    0.0001   -0.0012   -0.0000    0.0012   -0.0001   -0.0006    0.0011   -0.0330    0.0316
    39 C4     2py        0.0008    0.0008    0.0000   -0.0002   -0.0000   -0.0002    0.0775   -0.0938   -0.0050    0.0054
    40 C4     *py       -0.0034   -0.0021   -0.0000    0.0012    0.0001    0.0029    0.0213   -0.0409   -0.0009    0.0008
    41 C4     *200      -0.0006   -0.0006   -0.0000   -0.0002    0.0000   -0.0003    0.0076   -0.0081    0.0003   -0.0004
    42 C4     *110       0.0000    0.0000    0.0001   -0.0000   -0.0002   -0.0000    0.0005   -0.0005   -0.0111    0.0137
    43 C4     *020      -0.0009   -0.0009    0.0000   -0.0000   -0.0000   -0.0002   -0.0012    0.0012   -0.0003    0.0004
    44 C4     *002      -0.0009   -0.0009   -0.0000    0.0000   -0.0000   -0.0000   -0.0051    0.0052   -0.0000   -0.0000
    45 C5     1s        -0.0397    0.0442    0.4955    0.4974    0.4951   -0.4997   -0.0740   -0.0727   -0.0879   -0.0872
    46 C5     2s        -0.0009    0.0012    0.0140    0.0138    0.0140   -0.0142    0.1383    0.1415    0.1666    0.1727
    47 C5     *s        -0.0063    0.0028   -0.0043   -0.0048   -0.0083    0.0123    0.0843    0.1041    0.1436    0.1620
    48 C5     2px        0.0001   -0.0001    0.0001    0.0001    0.0001   -0.0002    0.0699    0.0656   -0.0126   -0.0016
    49 C5     *px       -0.0034    0.0016   -0.0005   -0.0005   -0.0010    0.0029    0.0085   -0.0029   -0.0132   -0.0226
    50 C5     2py        0.0001   -0.0004   -0.0000    0.0001   -0.0001    0.0002    0.0668    0.0867    0.1040    0.1152
    51 C5     *py        0.0005    0.0000   -0.0005   -0.0005    0.0012   -0.0020    0.0312    0.0206    0.0581    0.0528
    52 C5     *200       0.0002   -0.0002   -0.0006   -0.0006   -0.0005    0.0004    0.0062    0.0079    0.0058    0.0069
    53 C5     *110       0.0001   -0.0001    0.0000    0.0001    0.0001   -0.0001    0.0026    0.0057   -0.0013   -0.0008
    54 C5     *020       0.0003   -0.0002   -0.0006   -0.0006   -0.0003    0.0003    0.0014   -0.0024    0.0030   -0.0008
    55 C5     *002       0.0001   -0.0001   -0.0007   -0.0007   -0.0007    0.0006   -0.0040   -0.0032   -0.0043   -0.0036
    56 C6     1s         0.0396    0.0442    0.4960    0.4979   -0.4946    0.4993   -0.0740    0.0727   -0.0879    0.0872
    57 C6     2s         0.0009    0.0012    0.0140    0.0138   -0.0140    0.0142    0.1383   -0.1415    0.1666   -0.1727
    58 C6     *s         0.0063    0.0028   -0.0043   -0.0048    0.0083   -0.0123    0.0843   -0.1041    0.1436   -0.1620
    59 C6     2px       -0.0001   -0.0001    0.0001    0.0001   -0.0001    0.0001    0.0734   -0.0701   -0.0071   -0.0045
    60 C6     *px        0.0033    0.0016   -0.0005   -0.0006    0.0009   -0.0028    0.0102    0.0018   -0.0101    0.0198
    61 C6     2py        0.0001    0.0004    0.0000   -0.0001   -0.0002    0.0002   -0.0630    0.0831   -0.1045    0.1151
    62 C6     *py        0.0007    0.0001    0.0004    0.0005    0.0012   -0.0022   -0.0307    0.0208   -0.0587    0.0540
    63 C6     *200      -0.0002   -0.0002   -0.0006   -0.0006    0.0005   -0.0004    0.0063   -0.0082    0.0057   -0.0069
    64 C6     *110       0.0001    0.0001   -0.0000   -0.0001    0.0001   -0.0001   -0.0021    0.0046    0.0016   -0.0016
    65 C6     *020      -0.0002   -0.0002   -0.0006   -0.0006    0.0003   -0.0003    0.0013    0.0027    0.0030    0.0008
    66 C6     *002      -0.0001   -0.0001   -0.0007   -0.0007    0.0007   -0.0006   -0.0040    0.0032   -0.0043    0.0036
    67 H7     1s        -0.0000   -0.0001   -0.0001   -0.0001   -0.0001    0.0001    0.0415    0.0451    0.1004    0.0985
    68 H7     *s        -0.0007    0.0004    0.0008    0.0009    0.0007   -0.0004    0.0150    0.0070    0.0436    0.0310
    69 H8     1s         0.0000   -0.0001   -0.0001   -0.0001    0.0001   -0.0001    0.0415   -0.0451    0.1004   -0.0985
    70 H8     *s         0.0007    0.0004    0.0008    0.0009   -0.0007    0.0004    0.0150   -0.0070    0.0436   -0.0310
    71 H9     1s        -0.0000   -0.0001    0.0001   -0.0001    0.0001    0.0001    0.0415    0.0451   -0.1004   -0.0985
    72 H9     *s        -0.0007    0.0004   -0.0008    0.0009   -0.0007   -0.0004    0.0150    0.0070   -0.0436   -0.0310
    73 H10    1s         0.0000   -0.0001    0.0001   -0.0001   -0.0001   -0.0001    0.0415   -0.0451   -0.1004    0.0985
    74 H10    *s         0.0007    0.0004   -0.0008    0.0009    0.0007    0.0004    0.0150   -0.0070   -0.0436    0.0310


      Orbital                11        12        13        14        15        16        17        18        19        20
      Energy            -0.7371   -0.6239   -0.5987   -0.4949   -0.7156    0.0001    0.0000    0.0000    0.0000   -0.0000
      Occ. No.           2.0000    2.0000    2.0000    2.0000    1.9801    1.9798    1.2441    0.7593    0.0184    0.0177

     1 C1     1s        -0.0388   -0.0372    0.0122    0.0049    0.0691    0.0639    0.0330   -0.0036   -0.0887    0.0789
     2 C1     2s         0.0744    0.0733   -0.0267   -0.0135   -0.1406   -0.1307   -0.0817    0.0060    0.4342   -0.4082
     3 C1     *s         0.0821    0.0761   -0.0323   -0.0127   -0.0950   -0.0834   -0.0396   -0.0016    0.4335   -0.5313
     4 C1     2px        0.1932    0.1907    0.2414    0.2323    0.0010   -0.0123    0.0560   -0.0491    0.0005   -0.0332
     5 C1     *px        0.0753    0.1119    0.1063    0.1428    0.0074    0.0013   -0.0481    0.0027   -0.0360    0.0700
     6 C1     2py        0.0552    0.0603   -0.0060   -0.0084    0.2765    0.2623    0.0055    0.1324   -0.5448    0.5625
     7 C1     *py        0.0368    0.0405    0.0006   -0.0056    0.0947    0.0875   -0.0088    0.0905   -0.2346    0.2763
     8 C1     *200       0.0028    0.0029    0.0038    0.0037    0.0065    0.0063   -0.0061    0.0089   -0.0350    0.0361
     9 C1     *110       0.0071    0.0201    0.0089    0.0236   -0.0005   -0.0025   -0.0041    0.0091    0.0037   -0.0033
    10 C1     *020       0.0024    0.0014   -0.0007    0.0003   -0.0076   -0.0073    0.0072   -0.0061    0.0010   -0.0037
    11 C1     *002      -0.0017   -0.0016    0.0001   -0.0003    0.0027    0.0028    0.0000   -0.0010   -0.0089    0.0091
    12 C2     1s        -0.0388    0.0372    0.0122   -0.0049    0.0691    0.0639   -0.0330   -0.0036    0.0887   -0.0789
    13 C2     2s         0.0744   -0.0733   -0.0267    0.0135   -0.1406   -0.1307    0.0817    0.0060   -0.4342    0.4082
    14 C2     *s         0.0821   -0.0761   -0.0323    0.0127   -0.0950   -0.0834    0.0396   -0.0016   -0.4335    0.5313
    15 C2     2px        0.1958   -0.1936    0.2408   -0.2315    0.0156    0.0016   -0.0562   -0.0420    0.0284    0.0034
    16 C2     *px        0.0772   -0.1139    0.1062   -0.1423    0.0124    0.0059    0.0485    0.0075    0.0484   -0.0846
    17 C2     2py       -0.0449    0.0501    0.0188   -0.0206   -0.2760   -0.2626    0.0026   -0.1348   -0.5440    0.5634
    18 C2     *py       -0.0328    0.0345    0.0050   -0.0132   -0.0942   -0.0873   -0.0062   -0.0903   -0.2324    0.2722
    19 C2     *200       0.0032   -0.0040    0.0043   -0.0049    0.0064    0.0061    0.0063    0.0094    0.0347   -0.0358
    20 C2     *110      -0.0070    0.0199   -0.0083    0.0231    0.0020    0.0039   -0.0027   -0.0074    0.0075   -0.0074
    21 C2     *020       0.0021   -0.0003   -0.0012    0.0010   -0.0076   -0.0071   -0.0074   -0.0066   -0.0007    0.0034
    22 C2     *002      -0.0017    0.0016    0.0001    0.0003    0.0027    0.0028   -0.0000   -0.0010    0.0089   -0.0091
    23 C3     1s         0.0421    0.0603    0.0000    0.0000   -0.0000   -0.0485   -0.0661    0.0644    0.0000   -0.0053
    24 C3     2s        -0.0857   -0.1253   -0.0000   -0.0000    0.0000    0.1067    0.1442   -0.1454   -0.0000   -0.0289
    25 C3     *s        -0.0563   -0.0890   -0.0000   -0.0000    0.0000    0.1133    0.1700   -0.2555   -0.0000    0.1506
    26 C3     2px       -0.0020   -0.0020   -0.2312   -0.2577    0.0760   -0.0011   -0.0104    0.0105   -0.0475    0.0039
    27 C3     *px       -0.0003   -0.0003   -0.0624   -0.0777    0.0318   -0.0002   -0.0087    0.0078   -0.0047    0.0041
    28 C3     2py        0.0744    0.0754   -0.0061   -0.0068    0.0020    0.0426    0.3907   -0.3957   -0.0013   -0.1462
    29 C3     *py        0.0109    0.0119   -0.0017   -0.0021    0.0008    0.0076    0.3293   -0.2945   -0.0001   -0.1537
    30 C3     *200       0.0020    0.0021   -0.0005   -0.0005   -0.0002    0.0042   -0.0068    0.0107    0.0003    0.0150
    31 C3     *110       0.0003    0.0002    0.0192    0.0179    0.0067    0.0006   -0.0004    0.0010   -0.0111    0.0014
    32 C3     *020      -0.0038   -0.0023    0.0005    0.0005    0.0002   -0.0062    0.0005   -0.0074   -0.0003   -0.0112
    33 C3     *002       0.0018    0.0018   -0.0000   -0.0000   -0.0000   -0.0004    0.0011   -0.0001    0.0000   -0.0034
    34 C4     1s         0.0421   -0.0603    0.0000   -0.0000   -0.0000   -0.0485    0.0661    0.0644   -0.0000    0.0053
    35 C4     2s        -0.0857    0.1253   -0.0000    0.0000    0.0000    0.1067   -0.1442   -0.1454   -0.0000    0.0289
    36 C4     *s        -0.0563    0.0890    0.0000   -0.0000    0.0000    0.1133   -0.1700   -0.2555   -0.0000   -0.1506
    37 C4     2px        0.0020   -0.0020   -0.2312    0.2577    0.0760    0.0011   -0.0104   -0.0105    0.0475    0.0039
    38 C4     *px        0.0003   -0.0003   -0.0624    0.0777    0.0318    0.0002   -0.0087   -0.0078    0.0047    0.0041
    39 C4     2py       -0.0744    0.0754   -0.0061    0.0068    0.0020   -0.0426    0.3907    0.3957    0.0013   -0.1462
    40 C4     *py       -0.0109    0.0119   -0.0017    0.0021    0.0008   -0.0076    0.3293    0.2945    0.0001   -0.1537
    41 C4     *200       0.0020   -0.0021    0.0005   -0.0005    0.0002    0.0042    0.0068    0.0107    0.0003   -0.0150
    42 C4     *110       0.0003   -0.0002   -0.0192    0.0179   -0.0067    0.0006    0.0004    0.0010   -0.0111   -0.0014
    43 C4     *020      -0.0038    0.0023   -0.0005    0.0005   -0.0002   -0.0062   -0.0005   -0.0074   -0.0003    0.0112
    44 C4     *002       0.0018   -0.0018    0.0000   -0.0000   -0.0000   -0.0004   -0.0011   -0.0001   -0.0000    0.0034
    45 C5     1s        -0.0388   -0.0372   -0.0122   -0.0049   -0.0691    0.0639    0.0330   -0.0036    0.0887    0.0789
    46 C5     2s         0.0744    0.0733    0.0267    0.0135    0.1406   -0.1307   -0.0817    0.0060   -0.4342   -0.4082
    47 C5     *s         0.0821    0.0761    0.0323    0.0127    0.0950   -0.0834   -0.0396   -0.0016   -0.4335   -0.5313
    48 C5     2px       -0.1958   -0.1936    0.2408    0.2315    0.0156   -0.0016   -0.0562    0.0420   -0.0284    0.0034
    49 C5     *px       -0.0772   -0.1139    0.1062    0.1423    0.0124   -0.0059    0.0485   -0.0075   -0.0484   -0.0846
    50 C5     2py        0.0449    0.0501    0.0188    0.0206   -0.2760    0.2626    0.0026    0.1348    0.5440    0.5634
    51 C5     *py        0.0328    0.0345    0.0050    0.0132   -0.0941    0.0873   -0.0062    0.0903    0.2324    0.2722
    52 C5     *200       0.0032    0.0040   -0.0043   -0.0049   -0.0064    0.0061   -0.0063    0.0094    0.0347    0.0358
    53 C5     *110      -0.0070   -0.0199    0.0083    0.0231   -0.0020    0.0039    0.0027   -0.0074    0.0075    0.0074
    54 C5     *020       0.0021    0.0003    0.0012    0.0010    0.0076   -0.0071    0.0074   -0.0066   -0.0007   -0.0034
    55 C5     *002      -0.0017   -0.0016   -0.0001    0.0003   -0.0027    0.0028    0.0000   -0.0010    0.0089    0.0091
    56 C6     1s        -0.0388    0.0372   -0.0122    0.0049   -0.0691    0.0639   -0.0330   -0.0036   -0.0887   -0.0789
    57 C6     2s         0.0744   -0.0733    0.0267   -0.0135    0.1406   -0.1307    0.0817    0.0060    0.4342    0.4082
    58 C6     *s         0.0821   -0.0761    0.0323   -0.0127    0.0950   -0.0834    0.0396   -0.0016    0.4335    0.5313
    59 C6     2px       -0.1932    0.1907    0.2414   -0.2323    0.0010    0.0123    0.0560    0.0491   -0.0005   -0.0332
    60 C6     *px       -0.0753    0.1119    0.1063   -0.1428    0.0074   -0.0013   -0.0481   -0.0027    0.0360    0.0700
    61 C6     2py       -0.0552    0.0603   -0.0060    0.0084    0.2765   -0.2623    0.0055   -0.1324    0.5448    0.5625
    62 C6     *py       -0.0368    0.0405    0.0006    0.0056    0.0947   -0.0875   -0.0088   -0.0905    0.2346    0.2763
    63 C6     *200       0.0028   -0.0029   -0.0038    0.0037   -0.0065    0.0063    0.0061    0.0089   -0.0350   -0.0361
    64 C6     *110       0.0071   -0.0201   -0.0089    0.0236    0.0005   -0.0025    0.0041    0.0091    0.0037    0.0033
    65 C6     *020       0.0024   -0.0014    0.0007    0.0003    0.0076   -0.0073   -0.0072   -0.0061    0.0010    0.0037
    66 C6     *002      -0.0017    0.0016   -0.0001   -0.0003   -0.0027    0.0028   -0.0000   -0.0010   -0.0089   -0.0091
    67 H7     1s         0.1389    0.1577   -0.1149   -0.1405   -0.0369    0.0278   -0.0134    0.0466    0.0246    0.0198
    68 H7     *s         0.0767    0.0967   -0.0864   -0.1207   -0.0468    0.0379    0.0184    0.0478    0.0126   -0.0035
    69 H8     1s         0.1389   -0.1577   -0.1149    0.1405   -0.0369    0.0278    0.0134    0.0466   -0.0246   -0.0198
    70 H8     *s         0.0767   -0.0967   -0.0864    0.1207   -0.0468    0.0379   -0.0184    0.0478   -0.0126    0.0035
    71 H9     1s         0.1389    0.1577    0.1149    0.1405    0.0369    0.0278   -0.0134    0.0466   -0.0246    0.0198
    72 H9     *s         0.0767    0.0967    0.0864    0.1207    0.0468    0.0379    0.0184    0.0478   -0.0126   -0.0035
    73 H10    1s         0.1389   -0.1577    0.1149   -0.1405    0.0369    0.0278    0.0134    0.0466    0.0246   -0.0198
    74 H10    *s         0.0767   -0.0967    0.0864   -0.1207    0.0468    0.0379   -0.0184    0.0478    0.0126    0.0035



      Molecular orbitals for symmetry species 2: a" 


      Orbital                 1         2         3         4         5         6
      Energy            -0.4914   -0.3312   -0.3140    0.1845    0.1618    0.4369
      Occ. No.           1.9558    1.9100    1.8608    0.0923    0.1396    0.0421

     1 C1     2pz        0.2228   -0.2862   -0.1621   -0.4151   -0.2057   -0.4125
     2 C1     *pz        0.1396   -0.2186   -0.1308   -0.2504   -0.1765   -0.2231
     3 C1     *101      -0.0092    0.0008    0.0129    0.0079   -0.0117   -0.0020
     4 C1     *011      -0.0070    0.0134   -0.0121   -0.0002    0.0251    0.0160
     5 C2     2pz        0.2228   -0.2862    0.1620    0.4151   -0.2057    0.4125
     6 C2     *pz        0.1396   -0.2186    0.1308    0.2504   -0.1765    0.2231
     7 C2     *101      -0.0095    0.0015   -0.0122   -0.0079   -0.0104    0.0012
     8 C2     *011       0.0065   -0.0134   -0.0128   -0.0006   -0.0256    0.0161
     9 C3     2pz        0.2066    0.0000   -0.3343   -0.0000    0.4540    0.3581
    10 C3     *pz        0.1164    0.0000   -0.2472   -0.0000    0.3523    0.2669
    11 C3     *101       0.0003   -0.0196   -0.0003   -0.0264   -0.0004   -0.0005
    12 C3     *011      -0.0132   -0.0005    0.0106   -0.0007    0.0151    0.0176
    13 C4     2pz        0.2066   -0.0000    0.3343   -0.0000    0.4540   -0.3581
    14 C4     *pz        0.1164   -0.0000    0.2472   -0.0000    0.3523   -0.2669
    15 C4     *101      -0.0003   -0.0196   -0.0003    0.0264    0.0004   -0.0005
    16 C4     *011       0.0132   -0.0005    0.0106    0.0007   -0.0151    0.0176
    17 C5     2pz        0.2228    0.2862   -0.1620    0.4151   -0.2057   -0.4125
    18 C5     *pz        0.1396    0.2186   -0.1308    0.2504   -0.1765   -0.2231
    19 C5     *101       0.0095    0.0015   -0.0122    0.0079    0.0104    0.0012
    20 C5     *011      -0.0065   -0.0134   -0.0128    0.0006    0.0256    0.0161
    21 C6     2pz        0.2228    0.2862    0.1621   -0.4151   -0.2057    0.4125
    22 C6     *pz        0.1396    0.2186    0.1308   -0.2504   -0.1765    0.2231
    23 C6     *101       0.0092    0.0008    0.0129   -0.0079    0.0117   -0.0020
    24 C6     *011       0.0070    0.0134   -0.0121    0.0002   -0.0251    0.0160
--

      Von Neumann Entropy (Root   1) =  1.88978


      Mulliken population analysis for root number:  1
      -----------------------------------------------


++    Molecular charges:
      ------------------

      Mulliken charges per centre and basis function type
      ---------------------------------------------------

                C1      C2      C3      C4      C5      C6      H7      H8      H9      H10   
      1s       1.9965  1.9965  1.9968  1.9968  1.9965  1.9965  0.5234  0.5234  0.5234  0.5234
      2s       0.6737  0.6737  0.6848  0.6848  0.6737  0.6737  0.0000  0.0000  0.0000  0.0000
      2px      0.7302  0.7307  0.7481  0.7481  0.7307  0.7302  0.0000  0.0000  0.0000  0.0000
      2pz      0.5593  0.5593  0.5457  0.5457  0.5593  0.5593  0.0000  0.0000  0.0000  0.0000
      2py      0.7209  0.7204  0.5755  0.5755  0.7204  0.7209  0.0000  0.0000  0.0000  0.0000
      *s       0.5116  0.5116  0.5383  0.5383  0.5116  0.5116  0.2707  0.2707  0.2707  0.2707
      *px      0.2992  0.3057  0.1145  0.1145  0.3057  0.2992  0.0000  0.0000  0.0000  0.0000
      *110     0.0170  0.0166  0.0155  0.0155  0.0166  0.0170  0.0000  0.0000  0.0000  0.0000
      *020     0.0198  0.0193  0.0010  0.0010  0.0193  0.0198  0.0000  0.0000  0.0000  0.0000
      *002    -0.0183 -0.0183 -0.0147 -0.0147 -0.0183 -0.0183  0.0000  0.0000  0.0000  0.0000
      *200     0.0273  0.0281  0.0234  0.0234  0.0281  0.0273  0.0000  0.0000  0.0000  0.0000
      *pz      0.4479  0.4479  0.4110  0.4110  0.4479  0.4479  0.0000  0.0000  0.0000  0.0000
      *py      0.2228  0.2164  0.3269  0.3269  0.2164  0.2228  0.0000  0.0000  0.0000  0.0000
      *101     0.0036  0.0034  0.0066  0.0066  0.0034  0.0036  0.0000  0.0000  0.0000  0.0000
      *011     0.0059  0.0061  0.0034  0.0034  0.0061  0.0059  0.0000  0.0000  0.0000  0.0000
      Total    6.2175  6.2175  5.9768  5.9768  6.2175  6.2175  0.7941  0.7941  0.7941  0.7941

      N-E     -0.2175 -0.2175  0.0232  0.0232 -0.2175 -0.2175  0.2059  0.2059  0.2059  0.2059

      Total electronic charge=   40.000000

      Total            charge=   -0.000000
--



      Expectation values of various properties for root number:  1
      -----------------------------------------------------------


++    Molecular properties:
      ---------------------

      Charge (e):
                      =   -0.0000
      Dipole Moment (Debye):
      Origin of the operator (Ang)=    0.0000    0.0000    0.0000
                   X= -6.9334E-06               Y=  1.8053E-06               Z=  0.0000E+00           Total=  7.1646E-06
      Quadrupole Moment (Debye*Ang):
      Origin of the operator (Ang)=    1.4092    1.2813    0.0000
                  XX= -2.8779E+01              XY=  1.5869E-01              XZ=  0.0000E+00              YY= -3.4763E+01
                  YZ=  0.0000E+00              ZZ= -3.7602E+01
      In traceless form (Debye*Ang)
                  XX=  7.4032E+00              XY=  2.3804E-01              XZ=  0.0000E+00              YY= -1.5722E+00
                  YZ=  0.0000E+00              ZZ= -5.8310E+00
--


      Input file to MOLDEN was generated!

      Average orbitals are written to the RASORB file
      Natural orbitals for root   1 are written to the RASORB.1 file
      Spin density orbitals for root   1 are written to the SPDORB.1 file

--- Stop Module: rasscf at Tue Jun 25 14:36:56 2024 /rc=_RC_ALL_IS_WELL_ ---
*** files: product.rasscf.molden product.RasOrb product.RasOrb.1 product.SpdOrb.1 xmldump
    saved to directory /home/kenya/molcas_test/0625
--- Module rasscf spent 1 minute 39 seconds ---

.##################.
.# Happy landing! #.
.##################.

    Timing: Wall=103.08 User=100.90 System=1.72
