[Molden Format]
[N_Atoms]
                   10
[Atoms] (AU)
C1          1      6           4.91604692      3.80358405      0.00000000
C2          2      6           4.98609907      1.16034853      0.00000000
C3          3      6           2.59296880      5.06293534      0.00000000
C4          4      6           2.73299751     -0.22028537      0.00000000
C5          5      6           0.33986724      3.68230143      0.00000000
C6          6      6           0.40991939      1.03906591      0.00000000
H7          7      1          -1.45374741      4.66312598      0.00000000
H8          8      1          -1.32923336     -0.03539457      0.00000000
H9          9      1           6.65519967      4.87804453      0.00000000
H10        10      1           6.77973262      0.17950508      0.00000000
[Charge] (Mulliken)
   0.0000000000000000     
   0.0000000000000000     
   0.0000000000000000     
   0.0000000000000000     
   0.0000000000000000     
   0.0000000000000000     
   0.0000000000000000     
   0.0000000000000000     
   0.0000000000000000     
   0.0000000000000000     
[GTO] (AU)
   1
   s   6
  3.047524880E+03  1.834737132E-03
  4.573695180E+02  1.403732281E-02
  1.039486850E+02  6.884262227E-02
  2.921015530E+01  2.321844432E-01
  9.286662960E+00  4.679413484E-01
  3.163926960E+00  3.623119853E-01
   s   3
  7.868272350E+00 -1.193324198E-01
  1.881288540E+00 -1.608541517E-01
  5.442492580E-01  1.143456438E+00
   s   1
  1.687144782E-01  1.000000000E+00
   p   3
  7.868272350E+00  6.899906659E-02
  1.881288540E+00  3.164239610E-01
  5.442492580E-01  7.443082909E-01
   p   1
  1.687144782E-01  1.000000000E+00
   d   1
  8.000000000E-01  1.000000000E+00
 
   2
   s   6
  3.047524880E+03  1.834737132E-03
  4.573695180E+02  1.403732281E-02
  1.039486850E+02  6.884262227E-02
  2.921015530E+01  2.321844432E-01
  9.286662960E+00  4.679413484E-01
  3.163926960E+00  3.623119853E-01
   s   3
  7.868272350E+00 -1.193324198E-01
  1.881288540E+00 -1.608541517E-01
  5.442492580E-01  1.143456438E+00
   s   1
  1.687144782E-01  1.000000000E+00
   p   3
  7.868272350E+00  6.899906659E-02
  1.881288540E+00  3.164239610E-01
  5.442492580E-01  7.443082909E-01
   p   1
  1.687144782E-01  1.000000000E+00
   d   1
  8.000000000E-01  1.000000000E+00
 
   3
   s   6
  3.047524880E+03  1.834737132E-03
  4.573695180E+02  1.403732281E-02
  1.039486850E+02  6.884262227E-02
  2.921015530E+01  2.321844432E-01
  9.286662960E+00  4.679413484E-01
  3.163926960E+00  3.623119853E-01
   s   3
  7.868272350E+00 -1.193324198E-01
  1.881288540E+00 -1.608541517E-01
  5.442492580E-01  1.143456438E+00
   s   1
  1.687144782E-01  1.000000000E+00
   p   3
  7.868272350E+00  6.899906659E-02
  1.881288540E+00  3.164239610E-01
  5.442492580E-01  7.443082909E-01
   p   1
  1.687144782E-01  1.000000000E+00
   d   1
  8.000000000E-01  1.000000000E+00
 
   4
   s   6
  3.047524880E+03  1.834737132E-03
  4.573695180E+02  1.403732281E-02
  1.039486850E+02  6.884262227E-02
  2.921015530E+01  2.321844432E-01
  9.286662960E+00  4.679413484E-01
  3.163926960E+00  3.623119853E-01
   s   3
  7.868272350E+00 -1.193324198E-01
  1.881288540E+00 -1.608541517E-01
  5.442492580E-01  1.143456438E+00
   s   1
  1.687144782E-01  1.000000000E+00
   p   3
  7.868272350E+00  6.899906659E-02
  1.881288540E+00  3.164239610E-01
  5.442492580E-01  7.443082909E-01
   p   1
  1.687144782E-01  1.000000000E+00
   d   1
  8.000000000E-01  1.000000000E+00
 
   5
   s   6
  3.047524880E+03  1.834737132E-03
  4.573695180E+02  1.403732281E-02
  1.039486850E+02  6.884262227E-02
  2.921015530E+01  2.321844432E-01
  9.286662960E+00  4.679413484E-01
  3.163926960E+00  3.623119853E-01
   s   3
  7.868272350E+00 -1.193324198E-01
  1.881288540E+00 -1.608541517E-01
  5.442492580E-01  1.143456438E+00
   s   1
  1.687144782E-01  1.000000000E+00
   p   3
  7.868272350E+00  6.899906659E-02
  1.881288540E+00  3.164239610E-01
  5.442492580E-01  7.443082909E-01
   p   1
  1.687144782E-01  1.000000000E+00
   d   1
  8.000000000E-01  1.000000000E+00
 
   6
   s   6
  3.047524880E+03  1.834737132E-03
  4.573695180E+02  1.403732281E-02
  1.039486850E+02  6.884262227E-02
  2.921015530E+01  2.321844432E-01
  9.286662960E+00  4.679413484E-01
  3.163926960E+00  3.623119853E-01
   s   3
  7.868272350E+00 -1.193324198E-01
  1.881288540E+00 -1.608541517E-01
  5.442492580E-01  1.143456438E+00
   s   1
  1.687144782E-01  1.000000000E+00
   p   3
  7.868272350E+00  6.899906659E-02
  1.881288540E+00  3.164239610E-01
  5.442492580E-01  7.443082909E-01
   p   1
  1.687144782E-01  1.000000000E+00
   d   1
  8.000000000E-01  1.000000000E+00
 
   7
   s   3
  1.873113696E+01  3.349460434E-02
  2.825394365E+00  2.347269535E-01
  6.401216923E-01  8.137573261E-01
   s   1
  1.612777588E-01  1.000000000E+00
 
   8
   s   3
  1.873113696E+01  3.349460434E-02
  2.825394365E+00  2.347269535E-01
  6.401216923E-01  8.137573261E-01
   s   1
  1.612777588E-01  1.000000000E+00
 
   9
   s   3
  1.873113696E+01  3.349460434E-02
  2.825394365E+00  2.347269535E-01
  6.401216923E-01  8.137573261E-01
   s   1
  1.612777588E-01  1.000000000E+00
 
  10
   s   3
  1.873113696E+01  3.349460434E-02
  2.825394365E+00  2.347269535E-01
  6.401216923E-01  8.137573261E-01
   s   1
  1.612777588E-01  1.000000000E+00
 
[MO]
Sym=     1a' 
Ene=   -11.3550
Spin= Alpha
Occup=    2.00000
   1         0.42475132
   2         0.00931160
   3         0.00127523
   4        -0.00100206
   5        -0.00076052
   6         0.00000000
   7        -0.00062578
   8        -0.00047495
   9         0.00000000
  10        -0.00000000
  11        -0.00000000
  12        -0.00000000
  13         0.00000000
  14         0.00000000
  15         0.00000000
  16         0.42475253
  17         0.00931162
  18         0.00127523
  19        -0.00104093
  20         0.00070637
  21         0.00000000
  22        -0.00065006
  23         0.00044113
  24         0.00000000
  25        -0.00000000
  26        -0.00000000
  27        -0.00000000
  28         0.00000000
  29         0.00000000
  30         0.00000000
  31         0.36247217
  32         0.00824161
  33         0.00141705
  34         0.00003600
  35        -0.00135921
  36         0.00000000
  37         0.00002248
  38        -0.00084883
  39         0.00000000
  40         0.00000000
  41         0.00000000
  42         0.00000000
  43        -0.00000000
  44         0.00000000
  45         0.00000000
  46         0.36246985
  47         0.00824156
  48         0.00141704
  49        -0.00003602
  50         0.00135920
  51         0.00000000
  52        -0.00002250
  53         0.00084882
  54         0.00000000
  55         0.00000000
  56         0.00000000
  57         0.00000000
  58        -0.00000000
  59         0.00000000
  60         0.00000000
  61         0.42476142
  62         0.00931180
  63         0.00127523
  64         0.00104093
  65        -0.00070638
  66         0.00000000
  67         0.00065006
  68        -0.00044113
  69         0.00000000
  70         0.00000000
  71         0.00000000
  72         0.00000000
  73         0.00000000
  74         0.00000000
  75         0.00000000
  76         0.42475529
  77         0.00931168
  78         0.00127524
  79         0.00100205
  80         0.00076055
  81         0.00000000
  82         0.00062578
  83         0.00047496
  84         0.00000000
  85         0.00000000
  86         0.00000000
  87         0.00000000
  88        -0.00000000
  89         0.00000000
  90         0.00000000
  91         0.00101579
  92         0.00113418
  93         0.00101577
  94         0.00113416
  95         0.00101576
  96         0.00113415
  97         0.00101575
  98         0.00113413
Sym=     2a' 
Ene=   -11.3470
Spin= Alpha
Occup=    2.00000
   1        -0.49687669
   2        -0.00989604
   3        -0.00038206
   4        -0.00025624
   5         0.00112565
   6         0.00000000
   7        -0.00016002
   8         0.00070297
   9         0.00000000
  10         0.00000000
  11         0.00000000
  12         0.00000000
  13         0.00000000
  14         0.00000000
  15         0.00000000
  16        -0.49689277
  17        -0.00989637
  18        -0.00038208
  19        -0.00019619
  20        -0.00113755
  21         0.00000000
  22        -0.00012252
  23        -0.00071040
  24         0.00000000
  25         0.00000000
  26        -0.00000000
  27         0.00000000
  28         0.00000000
  29         0.00000000
  30         0.00000000
  31         0.00001476
  32         0.00000030
  33         0.00000002
  34        -0.00219032
  35        -0.00005806
  36         0.00000000
  37        -0.00136786
  38        -0.00003626
  39         0.00000000
  40         0.00000000
  41         0.00000000
  42         0.00000000
  43        -0.00000000
  44         0.00000000
  45         0.00000000
  46        -0.00002118
  47        -0.00000043
  48        -0.00000003
  49        -0.00219031
  50        -0.00005808
  51         0.00000000
  52        -0.00136785
  53        -0.00003627
  54         0.00000000
  55        -0.00000000
  56        -0.00000000
  57        -0.00000000
  58        -0.00000000
  59         0.00000000
  60         0.00000000
  61         0.49689108
  62         0.00989631
  63         0.00038205
  64        -0.00019621
  65        -0.00113754
  66         0.00000000
  67        -0.00012253
  68        -0.00071039
  69         0.00000000
  70         0.00000000
  71         0.00000000
  72         0.00000000
  73        -0.00000000
  74         0.00000000
  75         0.00000000
  76         0.49686885
  77         0.00989588
  78         0.00038205
  79        -0.00025626
  80         0.00112565
  81         0.00000000
  82        -0.00016003
  83         0.00070297
  84         0.00000000
  85         0.00000000
  86        -0.00000000
  87         0.00000000
  88         0.00000000
  89         0.00000000
  90         0.00000000
  91         0.00108097
  92         0.00120696
  93         0.00108091
  94         0.00120689
  95        -0.00108093
  96        -0.00120691
  97        -0.00108095
  98        -0.00120693
Sym=     3a' 
Ene=   -11.3450
Spin= Alpha
Occup=    2.00000
   1        -0.31417347
   2        -0.00612762
   3        -0.00009727
   4         0.00112043
   5        -0.00151559
   6         0.00000000
   7         0.00069971
   8        -0.00094649
   9         0.00000000
  10         0.00000000
  11         0.00000000
  12         0.00000000
  13        -0.00000000
  14         0.00000000
  15         0.00000000
  16         0.31414355
  17         0.00612704
  18         0.00009727
  19        -0.00103861
  20        -0.00157289
  21         0.00000000
  22        -0.00064861
  23        -0.00098227
  24         0.00000000
  25         0.00000000
  26         0.00000000
  27         0.00000000
  28         0.00000000
  29         0.00000000
  30         0.00000000
  31        -0.54467913
  32        -0.01092782
  33        -0.00050758
  34        -0.00001362
  35         0.00051170
  36         0.00000000
  37        -0.00000851
  38         0.00031955
  39         0.00000000
  40         0.00000000
  41         0.00000000
  42         0.00000000
  43        -0.00000000
  44         0.00000000
  45         0.00000000
  46         0.54468241
  47         0.01092789
  48         0.00050758
  49        -0.00001363
  50         0.00051170
  51         0.00000000
  52        -0.00000851
  53         0.00031956
  54         0.00000000
  55         0.00000000
  56         0.00000000
  57         0.00000000
  58         0.00000000
  59         0.00000000
  60         0.00000000
  61        -0.31414390
  62        -0.00612704
  63        -0.00009725
  64        -0.00103860
  65        -0.00157290
  66         0.00000000
  67        -0.00064860
  68        -0.00098227
  69         0.00000000
  70        -0.00000000
  71        -0.00000000
  72        -0.00000000
  73        -0.00000000
  74         0.00000000
  75         0.00000000
  76         0.31417761
  77         0.00612771
  78         0.00009727
  79         0.00112044
  80        -0.00151559
  81         0.00000000
  82         0.00069971
  83        -0.00094649
  84         0.00000000
  85        -0.00000000
  86        -0.00000000
  87        -0.00000000
  88        -0.00000000
  89         0.00000000
  90         0.00000000
  91        -0.00065994
  92        -0.00073685
  93         0.00066000
  94         0.00073693
  95        -0.00065999
  96        -0.00073692
  97         0.00065992
  98         0.00073684
Sym=     4a' 
Ene=   -11.3330
Spin= Alpha
Occup=    2.00000
   1        -0.49797610
   2        -0.00837880
   3         0.00133071
   4        -0.00007429
   5        -0.00114054
   6         0.00000000
   7        -0.00004639
   8        -0.00071227
   9         0.00000000
  10        -0.00000000
  11        -0.00000000
  12        -0.00000000
  13        -0.00000000
  14         0.00000000
  15         0.00000000
  16         0.49795857
  17         0.00837851
  18        -0.00133065
  19         0.00013453
  20        -0.00113509
  21         0.00000000
  22         0.00008401
  23        -0.00070886
  24         0.00000000
  25        -0.00000000
  26         0.00000000
  27        -0.00000000
  28        -0.00000000
  29         0.00000000
  30         0.00000000
  31         0.00001676
  32         0.00000028
  33        -0.00000004
  34        -0.00186992
  35        -0.00004954
  36         0.00000000
  37        -0.00116776
  38        -0.00003094
  39         0.00000000
  40         0.00000000
  41         0.00000000
  42         0.00000000
  43         0.00000000
  44         0.00000000
  45         0.00000000
  46         0.00002146
  47         0.00000037
  48        -0.00000005
  49         0.00186993
  50         0.00004954
  51         0.00000000
  52         0.00116777
  53         0.00003094
  54         0.00000000
  55         0.00000000
  56         0.00000000
  57         0.00000000
  58         0.00000000
  59         0.00000000
  60         0.00000000
  61         0.49795602
  62         0.00837845
  63        -0.00133066
  64        -0.00013453
  65         0.00113509
  66         0.00000000
  67        -0.00008402
  68         0.00070886
  69         0.00000000
  70        -0.00000000
  71        -0.00000000
  72        -0.00000000
  73         0.00000000
  74         0.00000000
  75         0.00000000
  76        -0.49797971
  77        -0.00837887
  78         0.00133071
  79         0.00007430
  80         0.00114053
  81         0.00000000
  82         0.00004640
  83         0.00071226
  84         0.00000000
  85        -0.00000000
  86        -0.00000000
  87        -0.00000000
  88         0.00000000
  89         0.00000000
  90         0.00000000
  91         0.00084115
  92         0.00093919
  93        -0.00084118
  94        -0.00093922
  95        -0.00084118
  96        -0.00093922
  97         0.00084114
  98         0.00093917
Sym=     5a' 
Ene=   -11.3320
Spin= Alpha
Occup=    2.00000
   1        -0.25739569
   2        -0.00418186
   3         0.00085372
   4        -0.00124134
   5         0.00112069
   6         0.00000000
   7        -0.00077522
   8         0.00069987
   9         0.00000000
  10        -0.00000000
  11        -0.00000000
  12        -0.00000000
  13        -0.00000000
  14         0.00000000
  15         0.00000000
  16        -0.25742882
  17        -0.00418241
  18         0.00085381
  19        -0.00118025
  20        -0.00118479
  21         0.00000000
  22        -0.00073707
  23        -0.00073990
  24         0.00000000
  25         0.00000000
  26         0.00000000
  27         0.00000000
  28        -0.00000000
  29         0.00000000
  30         0.00000000
  31         0.60299400
  32         0.01026439
  33        -0.00147931
  34        -0.00001690
  35         0.00064007
  36         0.00000000
  37        -0.00001055
  38         0.00039973
  39         0.00000000
  40         0.00000000
  41        -0.00000000
  42         0.00000000
  43         0.00000000
  44         0.00000000
  45         0.00000000
  46         0.60299139
  47         0.01026434
  48        -0.00147931
  49         0.00001689
  50        -0.00064007
  51         0.00000000
  52         0.00001055
  53        -0.00039973
  54         0.00000000
  55        -0.00000000
  56         0.00000000
  57        -0.00000000
  58         0.00000000
  59         0.00000000
  60         0.00000000
  61        -0.25742806
  62        -0.00418239
  63         0.00085382
  64         0.00118026
  65         0.00118479
  66         0.00000000
  67         0.00073707
  68         0.00073990
  69         0.00000000
  70         0.00000000
  71         0.00000000
  72         0.00000000
  73        -0.00000000
  74         0.00000000
  75         0.00000000
  76        -0.25739359
  77        -0.00418182
  78         0.00085372
  79         0.00124134
  80        -0.00112068
  81         0.00000000
  82         0.00077521
  83        -0.00069986
  84         0.00000000
  85        -0.00000000
  86        -0.00000000
  87        -0.00000000
  88         0.00000000
  89         0.00000000
  90         0.00000000
  91        -0.00041566
  92        -0.00046411
  93        -0.00041560
  94        -0.00046404
  95        -0.00041560
  96        -0.00046404
  97        -0.00041565
  98        -0.00046410
Sym=     6a' 
Ene=   -11.3250
Spin= Alpha
Occup=    2.00000
   1        -0.38634257
   2        -0.00593676
   3         0.00166003
   4        -0.00072924
   5        -0.00030232
   6         0.00000000
   7        -0.00045541
   8        -0.00018880
   9         0.00000000
  10        -0.00000000
  11        -0.00000000
  12        -0.00000000
  13         0.00000000
  14         0.00000000
  15         0.00000000
  16         0.38634542
  17         0.00593681
  18        -0.00166004
  19         0.00074423
  20        -0.00026325
  21         0.00000000
  22         0.00046477
  23        -0.00016440
  24         0.00000000
  25        -0.00000000
  26        -0.00000000
  27        -0.00000000
  28        -0.00000000
  29         0.00000000
  30         0.00000000
  31         0.44554046
  32         0.00708472
  33        -0.00164908
  34        -0.00001899
  35         0.00071666
  36         0.00000000
  37        -0.00001186
  38         0.00044756
  39         0.00000000
  40         0.00000000
  41         0.00000000
  42         0.00000000
  43         0.00000000
  44         0.00000000
  45         0.00000000
  46        -0.44554187
  47        -0.00708474
  48         0.00164909
  49        -0.00001898
  50         0.00071667
  51         0.00000000
  52        -0.00001185
  53         0.00044756
  54         0.00000000
  55         0.00000000
  56         0.00000000
  57         0.00000000
  58         0.00000000
  59         0.00000000
  60         0.00000000
  61        -0.38634129
  62        -0.00593674
  63         0.00166003
  64         0.00074423
  65        -0.00026325
  66         0.00000000
  67         0.00046477
  68        -0.00016440
  69         0.00000000
  70        -0.00000000
  71         0.00000000
  72        -0.00000000
  73        -0.00000000
  74         0.00000000
  75         0.00000000
  76         0.38634168
  77         0.00593675
  78        -0.00166002
  79        -0.00072924
  80        -0.00030231
  81         0.00000000
  82        -0.00045541
  83        -0.00018879
  84         0.00000000
  85        -0.00000000
  86        -0.00000000
  87        -0.00000000
  88         0.00000000
  89         0.00000000
  90         0.00000000
  91        -0.00054819
  92        -0.00061209
  93         0.00054819
  94         0.00061208
  95        -0.00054819
  96        -0.00061208
  97         0.00054819
  98         0.00061208
Sym=     7a' 
Ene=    -1.7102
Spin= Alpha
Occup=    2.00000
   1        -0.09993385
   2         0.11996666
   3         0.13570507
   4        -0.04085326
   5        -0.03097114
   6         0.00000000
   7        -0.02551284
   8        -0.01934146
   9         0.00000000
  10         0.00000000
  11         0.00000000
  12         0.00000000
  13         0.00000000
  14         0.00000000
  15         0.00000000
  16        -0.09993383
  17         0.11996663
  18         0.13570504
  19        -0.04243645
  20         0.02876377
  21         0.00000000
  22        -0.02650154
  23         0.01796296
  24         0.00000000
  25        -0.00000000
  26         0.00000000
  27         0.00000000
  28        -0.00000000
  29         0.00000000
  30         0.00000000
  31        -0.08822844
  32         0.10974376
  33         0.12407275
  34         0.00159429
  35        -0.06016378
  36         0.00000000
  37         0.00099563
  38        -0.03757225
  39         0.00000000
  40         0.00000000
  41         0.00000000
  42         0.00000000
  43        -0.00000000
  44         0.00000000
  45         0.00000000
  46        -0.08822824
  47         0.10974353
  48         0.12407250
  49        -0.00159467
  50         0.06016376
  51         0.00000000
  52        -0.00099587
  53         0.03757224
  54         0.00000000
  55        -0.00000000
  56        -0.00000000
  57        -0.00000000
  58         0.00000000
  59         0.00000000
  60         0.00000000
  61        -0.09993472
  62         0.11996746
  63         0.13570598
  64         0.04243619
  65        -0.02876373
  66         0.00000000
  67         0.02650138
  68        -0.01796293
  69         0.00000000
  70         0.00000000
  71         0.00000000
  72         0.00000000
  73        -0.00000000
  74         0.00000000
  75         0.00000000
  76        -0.09993423
  77         0.11996709
  78         0.13570556
  79         0.04085304
  80         0.03097141
  81         0.00000000
  82         0.02551270
  83         0.01934163
  84         0.00000000
  85        -0.00000000
  86        -0.00000000
  87        -0.00000000
  88        -0.00000000
  89         0.00000000
  90         0.00000000
  91         0.03645158
  92         0.04070007
  93         0.03645113
  94         0.04069958
  95         0.03645092
  96         0.04069934
  97         0.03645060
  98         0.04069899
Sym=     8a' 
Ene=    -1.3537
Spin= Alpha
Occup=    2.00000
   1        -0.10801894
   2         0.14038730
   3         0.15861364
   4         0.04076696
   5        -0.02821835
   6         0.00000000
   7         0.02545895
   8        -0.01762235
   9         0.00000000
  10         0.00000000
  11         0.00000000
  12         0.00000000
  13        -0.00000000
  14         0.00000000
  15         0.00000000
  16        -0.10801904
  17         0.14038753
  18         0.15861390
  19         0.03921467
  20         0.03033782
  21         0.00000000
  22         0.02448954
  23         0.01894596
  24         0.00000000
  25         0.00000000
  26         0.00000000
  27         0.00000000
  28        -0.00000000
  29         0.00000000
  30         0.00000000
  31         0.00000022
  32        -0.00000029
  33        -0.00000033
  34         0.09108659
  35         0.00241388
  36         0.00000000
  37         0.05688353
  38         0.00150747
  39         0.00000000
  40         0.00000000
  41         0.00000000
  42         0.00000000
  43         0.00000000
  44         0.00000000
  45         0.00000000
  46        -0.00000106
  47         0.00000141
  48         0.00000159
  49         0.09108603
  50         0.00241453
  51         0.00000000
  52         0.05688318
  53         0.00150787
  54         0.00000000
  55         0.00000000
  56        -0.00000000
  57         0.00000000
  58        -0.00000000
  59         0.00000000
  60         0.00000000
  61         0.10801927
  62        -0.14038740
  63        -0.15861376
  64         0.03921588
  65         0.03033722
  66         0.00000000
  67         0.02449030
  68         0.01894558
  69         0.00000000
  70        -0.00000000
  71         0.00000000
  72         0.00000000
  73        -0.00000000
  74         0.00000000
  75         0.00000000
  76         0.10801806
  77        -0.14038616
  78        -0.15861235
  79         0.04076776
  80        -0.02821853
  81         0.00000000
  82         0.02545945
  83        -0.01762246
  84         0.00000000
  85         0.00000000
  86         0.00000000
  87         0.00000000
  88        -0.00000000
  89         0.00000000
  90         0.00000000
  91        -0.07524802
  92        -0.08401831
  93        -0.07524690
  94        -0.08401706
  95         0.07524720
  96         0.08401740
  97         0.07524685
  98         0.08401700
Sym=     9a' 
Ene=    -1.2138
Spin= Alpha
Occup=    2.00000
   1        -0.07394830
   2         0.10087422
   3         0.11389210
   4        -0.03373560
   5         0.08659147
   6         0.00000000
   7        -0.02106786
   8         0.05407632
   9         0.00000000
  10         0.00000000
  11         0.00000000
  12         0.00000000
  13        -0.00000000
  14         0.00000000
  15         0.00000000
  16         0.07394748
  17        -0.10087312
  18        -0.11389086
  19         0.02910292
  20         0.08825733
  21         0.00000000
  22         0.01817476
  23         0.05511665
  24         0.00000000
  25         0.00000000
  26         0.00000000
  27         0.00000000
  28         0.00000000
  29         0.00000000
  30         0.00000000
  31        -0.12089515
  32         0.17289432
  33         0.19508125
  34         0.00015180
  35        -0.00572556
  36         0.00000000
  37         0.00009480
  38        -0.00357561
  39         0.00000000
  40         0.00000000
  41         0.00000000
  42         0.00000000
  43        -0.00000000
  44         0.00000000
  45         0.00000000
  46         0.12089566
  47        -0.17289500
  48        -0.19508201
  49         0.00015236
  50        -0.00572594
  51         0.00000000
  52         0.00009515
  53        -0.00357585
  54         0.00000000
  55         0.00000000
  56         0.00000000
  57         0.00000000
  58         0.00000000
  59         0.00000000
  60         0.00000000
  61        -0.07394793
  62         0.10087343
  63         0.11389122
  64         0.02910197
  65         0.08825777
  66         0.00000000
  67         0.01817417
  68         0.05511693
  69         0.00000000
  70         0.00000000
  71         0.00000000
  72        -0.00000000
  73        -0.00000000
  74         0.00000000
  75         0.00000000
  76         0.07394880
  77        -0.10087488
  78        -0.11389285
  79        -0.03373622
  80         0.08659178
  81         0.00000000
  82        -0.02106825
  83         0.05407652
  84         0.00000000
  85         0.00000000
  86        -0.00000000
  87        -0.00000000
  88        -0.00000000
  89         0.00000000
  90         0.00000000
  91         0.05623447
  92         0.06278870
  93        -0.05623482
  94        -0.06278909
  95         0.05623465
  96         0.06278890
  97        -0.05623359
  98        -0.06278771
Sym=    10a' 
Ene=    -1.0125
Spin= Alpha
Occup=    2.00000
   1         0.08389919
   2        -0.11498257
   3        -0.12981277
   4        -0.02297396
   5        -0.10155332
   6         0.00000000
   7        -0.01434723
   8        -0.06342000
   9         0.00000000
  10         0.00000000
  11         0.00000000
  12         0.00000000
  13         0.00000000
  14         0.00000000
  15         0.00000000
  16        -0.08389955
  17         0.11498322
  18         0.12981349
  19         0.02832129
  20        -0.10019437
  21         0.00000000
  22         0.01768663
  23        -0.06257133
  24         0.00000000
  25         0.00000000
  26         0.00000000
  27         0.00000000
  28        -0.00000000
  29         0.00000000
  30         0.00000000
  31         0.00000007
  32        -0.00000023
  33        -0.00000026
  34        -0.14907088
  35        -0.00395051
  36         0.00000000
  37        -0.09309469
  38        -0.00246709
  39         0.00000000
  40        -0.00000000
  41        -0.00000000
  42        -0.00000000
  43        -0.00000000
  44         0.00000000
  45         0.00000000
  46        -0.00000068
  47         0.00000096
  48         0.00000108
  49         0.14907170
  50         0.00395055
  51         0.00000000
  52         0.09309520
  53         0.00246712
  54         0.00000000
  55        -0.00000000
  56        -0.00000000
  57        -0.00000000
  58        -0.00000000
  59         0.00000000
  60         0.00000000
  61        -0.08389885
  62         0.11498175
  63         0.12981185
  64        -0.02832160
  65         0.10019409
  66         0.00000000
  67        -0.01768682
  68         0.06257115
  69         0.00000000
  70         0.00000000
  71         0.00000000
  72         0.00000000
  73        -0.00000000
  74         0.00000000
  75         0.00000000
  76         0.08389955
  77        -0.11498314
  78        -0.12981341
  79         0.02297455
  80         0.10155272
  81         0.00000000
  82         0.01434759
  83         0.06341962
  84         0.00000000
  85         0.00000000
  86         0.00000000
  87         0.00000000
  88         0.00000000
  89         0.00000000
  90         0.00000000
  91         0.09468037
  92         0.10571554
  93        -0.09468068
  94        -0.10571588
  95        -0.09468030
  96        -0.10571546
  97         0.09468085
  98         0.10571607
Sym=    11a' 
Ene=    -0.9758
Spin= Alpha
Occup=    2.00000
   1        -0.03598832
   2         0.05809319
   3         0.06544892
   4         0.16811593
   5        -0.01086719
   6         0.00000000
   7         0.10498831
   8        -0.00678656
   9         0.00000000
  10        -0.00000000
  11        -0.00000000
  12        -0.00000000
  13         0.00000000
  14         0.00000000
  15         0.00000000
  16        -0.03598826
  17         0.05809337
  18         0.06544911
  19         0.16730374
  20         0.01975640
  21         0.00000000
  22         0.10448110