[Molden Format]
[N_Atoms]
                   10
[Atoms] (AU)
C1          1      6           4.91604692      3.80358405      0.00000000
C2          2      6           4.98609907      1.16034853      0.00000000
C3          3      6           2.59296880      5.06293534      0.00000000
C4          4      6           2.73299751     -0.22028537      0.00000000
C5          5      6           0.33986724      3.68230143      0.00000000
C6          6      6           0.40991939      1.03906591      0.00000000
H7          7      1          -1.45374741      4.66312598      0.00000000
H8          8      1          -1.32923336     -0.03539457      0.00000000
H9          9      1           6.65519967      4.87804453      0.00000000
H10        10      1           6.77973262      0.17950508      0.00000000
[Charge] (Mulliken)
 -0.25313028206729093     
 -0.25313176966896123     
   2.5961029105404876E-002
   2.5961514152140985E-002
 -0.25313058226322127     
 -0.25313067880336604     
  0.24015019543419636     
  0.24015006063931410     
  0.24014995891090907     
  0.24015055456083356     
[GTO] (AU)
   1
   s   6
  3.047524880E+03  1.834737132E-03
  4.573695180E+02  1.403732281E-02
  1.039486850E+02  6.884262227E-02
  2.921015530E+01  2.321844432E-01
  9.286662960E+00  4.679413484E-01
  3.163926960E+00  3.623119853E-01
   s   3
  7.868272350E+00 -1.193324198E-01
  1.881288540E+00 -1.608541517E-01
  5.442492580E-01  1.143456438E+00
   s   1
  1.687144782E-01  1.000000000E+00
   p   3
  7.868272350E+00  6.899906659E-02
  1.881288540E+00  3.164239610E-01
  5.442492580E-01  7.443082909E-01
   p   1
  1.687144782E-01  1.000000000E+00
   d   1
  8.000000000E-01  1.000000000E+00
 
   2
   s   6
  3.047524880E+03  1.834737132E-03
  4.573695180E+02  1.403732281E-02
  1.039486850E+02  6.884262227E-02
  2.921015530E+01  2.321844432E-01
  9.286662960E+00  4.679413484E-01
  3.163926960E+00  3.623119853E-01
   s   3
  7.868272350E+00 -1.193324198E-01
  1.881288540E+00 -1.608541517E-01
  5.442492580E-01  1.143456438E+00
   s   1
  1.687144782E-01  1.000000000E+00
   p   3
  7.868272350E+00  6.899906659E-02
  1.881288540E+00  3.164239610E-01
  5.442492580E-01  7.443082909E-01
   p   1
  1.687144782E-01  1.000000000E+00
   d   1
  8.000000000E-01  1.000000000E+00
 
   3
   s   6
  3.047524880E+03  1.834737132E-03
  4.573695180E+02  1.403732281E-02
  1.039486850E+02  6.884262227E-02
  2.921015530E+01  2.321844432E-01
  9.286662960E+00  4.679413484E-01
  3.163926960E+00  3.623119853E-01
   s   3
  7.868272350E+00 -1.193324198E-01
  1.881288540E+00 -1.608541517E-01
  5.442492580E-01  1.143456438E+00
   s   1
  1.687144782E-01  1.000000000E+00
   p   3
  7.868272350E+00  6.899906659E-02
  1.881288540E+00  3.164239610E-01
  5.442492580E-01  7.443082909E-01
   p   1
  1.687144782E-01  1.000000000E+00
   d   1
  8.000000000E-01  1.000000000E+00
 
   4
   s   6
  3.047524880E+03  1.834737132E-03
  4.573695180E+02  1.403732281E-02
  1.039486850E+02  6.884262227E-02
  2.921015530E+01  2.321844432E-01
  9.286662960E+00  4.679413484E-01
  3.163926960E+00  3.623119853E-01
   s   3
  7.868272350E+00 -1.193324198E-01
  1.881288540E+00 -1.608541517E-01
  5.442492580E-01  1.143456438E+00
   s   1
  1.687144782E-01  1.000000000E+00
   p   3
  7.868272350E+00  6.899906659E-02
  1.881288540E+00  3.164239610E-01
  5.442492580E-01  7.443082909E-01
   p   1
  1.687144782E-01  1.000000000E+00
   d   1
  8.000000000E-01  1.000000000E+00
 
   5
   s   6
  3.047524880E+03  1.834737132E-03
  4.573695180E+02  1.403732281E-02
  1.039486850E+02  6.884262227E-02
  2.921015530E+01  2.321844432E-01
  9.286662960E+00  4.679413484E-01
  3.163926960E+00  3.623119853E-01
   s   3
  7.868272350E+00 -1.193324198E-01
  1.881288540E+00 -1.608541517E-01
  5.442492580E-01  1.143456438E+00
   s   1
  1.687144782E-01  1.000000000E+00
   p   3
  7.868272350E+00  6.899906659E-02
  1.881288540E+00  3.164239610E-01
  5.442492580E-01  7.443082909E-01
   p   1
  1.687144782E-01  1.000000000E+00
   d   1
  8.000000000E-01  1.000000000E+00
 
   6
   s   6
  3.047524880E+03  1.834737132E-03
  4.573695180E+02  1.403732281E-02
  1.039486850E+02  6.884262227E-02
  2.921015530E+01  2.321844432E-01
  9.286662960E+00  4.679413484E-01
  3.163926960E+00  3.623119853E-01
   s   3
  7.868272350E+00 -1.193324198E-01
  1.881288540E+00 -1.608541517E-01
  5.442492580E-01  1.143456438E+00
   s   1
  1.687144782E-01  1.000000000E+00
   p   3
  7.868272350E+00  6.899906659E-02
  1.881288540E+00  3.164239610E-01
  5.442492580E-01  7.443082909E-01
   p   1
  1.687144782E-01  1.000000000E+00
   d   1
  8.000000000E-01  1.000000000E+00
 
   7
   s   3
  1.873113696E+01  3.349460434E-02
  2.825394365E+00  2.347269535E-01
  6.401216923E-01  8.137573261E-01
   s   1
  1.612777588E-01  1.000000000E+00
 
   8
   s   3
  1.873113696E+01  3.349460434E-02
  2.825394365E+00  2.347269535E-01
  6.401216923E-01  8.137573261E-01
   s   1
  1.612777588E-01  1.000000000E+00
 
   9
   s   3
  1.873113696E+01  3.349460434E-02
  2.825394365E+00  2.347269535E-01
  6.401216923E-01  8.137573261E-01
   s   1
  1.612777588E-01  1.000000000E+00
 
  10
   s   3
  1.873113696E+01  3.349460434E-02
  2.825394365E+00  2.347269535E-01
  6.401216923E-01  8.137573261E-01
   s   1
  1.612777588E-01  1.000000000E+00
 
[MO]
Sym=     1a' 
Ene=   -11.2700
Spin= Alpha
Occup=    2.00000
   1         0.22064649
   2         0.00577394
   3         0.00075524
   4         0.00015447
   5        -0.00002996
   6         0.00000000
   7        -0.00129800
   8        -0.00010556
   9         0.00000000
  10        -0.00061848
  11        -0.00064949
  12        -0.00065409
  13         0.00013402
  14         0.00000000
  15         0.00000000
  16         0.22225944
  17         0.00581632
  18         0.00079259
  19         0.00015389
  20         0.00004006
  21         0.00000000
  22        -0.00133139
  23         0.00003738
  24         0.00000000
  25        -0.00061139
  26        -0.00066716
  27        -0.00065894
  28        -0.00013248
  29         0.00000000
  30         0.00000000
  31         0.62678265
  32         0.01649961
  33        -0.00667501
  34         0.00001106
  35        -0.00041807
  36         0.00000000
  37        -0.00004639
  38         0.00175739
  39         0.00000000
  40        -0.00080898
  41        -0.00134015
  42        -0.00130447
  43         0.00001628
  44         0.00000000
  45         0.00000000
  46         0.63408828
  47         0.01669518
  48        -0.00678912
  49        -0.00001123
  50         0.00042380
  51         0.00000000
  52         0.00004751
  53        -0.00179015
  54         0.00000000
  55        -0.00081803
  56        -0.00135538
  57        -0.00131823
  58         0.00001647
  59         0.00000000
  60         0.00000000
  61         0.22050341
  62         0.00577001
  63         0.00075684
  64        -0.00015268
  65        -0.00003808
  66         0.00000000
  67         0.00130194
  68        -0.00003667
  69         0.00000000
  70        -0.00060602
  71        -0.00066143
  72        -0.00065376
  73        -0.00013137
  74         0.00000000
  75         0.00000000
  76         0.22220463
  77         0.00581483
  78         0.00079268
  79        -0.00015580
  80         0.00003188
  81         0.00000000
  82         0.00132756
  83         0.00010767
  84         0.00000000
  85        -0.00062355
  86        -0.00065469
  87        -0.00065881
  88         0.00013514
  89         0.00000000
  90         0.00000000
  91        -0.00007833
  92         0.00076598
  93        -0.00007846
  94         0.00077447
  95        -0.00007836
  96         0.00076621
  97        -0.00007847
  98         0.00077455
Sym=     2a' 
Ene=   -11.2700
Spin= Alpha
Occup=    2.00000
   1        -0.15094905
   2        -0.00396818
   3        -0.00342841
   4        -0.00012320
   5         0.00017530
   6         0.00000000
   7         0.00272838
   8         0.00021327
   9         0.00000000
  10         0.00048534
  11         0.00049861
  12         0.00045350
  13        -0.00010468
  14         0.00000000
  15         0.00000000
  16         0.14845973
  17         0.00390293
  18         0.00342077
  19         0.00011208
  20         0.00018115
  21         0.00000000
  22        -0.00272160
  23         0.00006797
  24         0.00000000
  25        -0.00046901
  26        -0.00050076
  27        -0.00044617
  28        -0.00010184
  29         0.00000000
  30         0.00000000
  31        -0.67491265
  32        -0.01806679
  33         0.01056683
  34        -0.00001403
  35         0.00052997
  36         0.00000000
  37         0.00008035
  38        -0.00303626
  39         0.00000000
  40         0.00083342
  41         0.00140482
  42         0.00127092
  43        -0.00001751
  44         0.00000000
  45         0.00000000
  46         0.66806087
  47         0.01788641
  48        -0.01049389
  49        -0.00001392
  50         0.00052540
  51         0.00000000
  52         0.00007994
  53        -0.00301703
  54         0.00000000
  55        -0.00082456
  56        -0.00139016
  57        -0.00125666
  58         0.00001732
  59         0.00000000
  60         0.00000000
  61        -0.15085611
  62        -0.00396562
  63        -0.00342958
  64         0.00011375
  65         0.00018156
  66         0.00000000
  67        -0.00273597
  68         0.00006850
  69         0.00000000
  70         0.00047562
  71         0.00050801
  72         0.00045330
  73         0.00010328
  74         0.00000000
  75         0.00000000
  76         0.14846866
  77         0.00390318
  78         0.00342099
  79        -0.00012151
  80         0.00017494
  81         0.00000000
  82         0.00271420
  83         0.00021218
  84         0.00000000
  85        -0.00047847
  86        -0.00049142
  87        -0.00044620
  88         0.00010322
  89         0.00000000
  90         0.00000000
  91         0.00001056
  92        -0.00077633
  93        -0.00000972
  94         0.00076797
  95         0.00001058
  96        -0.00077647
  97        -0.00000971
  98         0.00076794
Sym=     3a' 
Ene=   -11.2690
Spin= Alpha
Occup=    2.00000
   1        -0.49791477
   2        -0.01367336
   3         0.00429721
   4         0.00003528
   5         0.00000537
   6         0.00000000
   7        -0.00044929
   8         0.00041394
   9         0.00000000
  10         0.00099208
  11         0.00107826
  12         0.00116163
  13        -0.00001085
  14         0.00000000
  15         0.00000000
  16        -0.49816480
  17        -0.01368018
  18         0.00429854
  19         0.00003550
  20        -0.00000363
  21         0.00000000
  22        -0.00042577
  23        -0.00043701
  24         0.00000000
  25         0.00099183
  26         0.00107936
  27         0.00116223
  28         0.00000552
  29         0.00000000
  30         0.00000000
  31         0.00037206
  32         0.00001008
  33        -0.00000916
  34         0.00010121
  35         0.00000227
  36         0.00000000
  37        -0.00124901
  38        -0.00003051
  39         0.00000000
  40         0.00000149
  41        -0.00000208
  42        -0.00000061
  43        -0.00003346
  44         0.00000000
  45         0.00000000
  46         0.00021608
  47         0.00000584
  48        -0.00000339
  49         0.00010127
  50         0.00000292
  51         0.00000000
  52        -0.00124999
  53        -0.00003387
  54         0.00000000
  55        -0.00000165
  56         0.00000116
  57        -0.00000039
  58         0.00003360
  59         0.00000000
  60         0.00000000
  61         0.49711999
  62         0.01365144
  63        -0.00428316
  64         0.00003535
  65        -0.00000346
  66         0.00000000
  67        -0.00042320
  68        -0.00043733
  69         0.00000000
  70        -0.00099030
  71        -0.00107784
  72        -0.00115992
  73        -0.00000574
  74         0.00000000
  75         0.00000000
  76         0.49773349
  77         0.01366845
  78        -0.00429621
  79         0.00003519
  80         0.00000563
  81         0.00000000
  82        -0.00044808
  83         0.00041227
  84         0.00000000
  85        -0.00099185
  86        -0.00107756
  87        -0.00116119
  88         0.00001092
  89         0.00000000
  90         0.00000000
  91        -0.00012715
  92         0.00082115
  93        -0.00012727
  94         0.00082187
  95         0.00012733
  96        -0.00082209
  97         0.00012734
  98        -0.00082273
Sym=     4a' 
Ene=   -11.2680
Spin= Alpha
Occup=    2.00000
   1         0.44536385
   2         0.01219587
   3        -0.00544849
   4        -0.00005572
   5         0.00002669
   6         0.00000000
   7         0.00109624
   8        -0.00042841
   9         0.00000000
  10        -0.00067359
  11        -0.00084980
  12        -0.00102650
  13        -0.00007647
  14         0.00000000
  15         0.00000000
  16         0.44544387
  17         0.01219822
  18        -0.00545503
  19        -0.00005429
  20        -0.00002957
  21         0.00000000
  22         0.00107468
  23         0.00048475
  24         0.00000000
  25        -0.00068098
  26        -0.00084222
  27        -0.00102656
  28         0.00008687
  29         0.00000000
  30         0.00000000
  31        -0.31363851
  32        -0.00854849
  33         0.00759398
  34        -0.00001001
  35         0.00037931
  36         0.00000000
  37         0.00005299
  38        -0.00201502
  39         0.00000000
  40        -0.00001054
  41         0.00044655
  42         0.00050245
  43        -0.00001396
  44         0.00000000
  45         0.00000000
  46        -0.31381705
  47        -0.00855346
  48         0.00760508
  49         0.00001017
  50        -0.00037956
  51         0.00000000
  52        -0.00005492
  53         0.00201862
  54         0.00000000
  55        -0.00001093
  56         0.00044653
  57         0.00050262
  58        -0.00001392
  59         0.00000000
  60         0.00000000
  61         0.44568248
  62         0.01220458
  63        -0.00544793
  64         0.00005425
  65         0.00002981
  66         0.00000000
  67        -0.00107196
  68        -0.00048752
  69         0.00000000
  70        -0.00068194
  71        -0.00084349
  72        -0.00102731
  73         0.00008674
  74         0.00000000
  75         0.00000000
  76         0.44659221
  77         0.01222982
  78        -0.00546826
  79         0.00005585
  80        -0.00002643
  81         0.00000000
  82        -0.00110013
  83         0.00042672
  84         0.00000000
  85        -0.00067555
  86        -0.00085172
  87        -0.00102918
  88        -0.00007658
  89         0.00000000
  90         0.00000000
  91        -0.00009976
  92         0.00071806
  93        -0.00009996
  94         0.00071906
  95        -0.00009963
  96         0.00071751
  97        -0.00009970
  98         0.00071718
Sym=     5a' 
Ene=   -11.2680
Spin= Alpha
Occup=    2.00000
   1        -0.49862410
   2        -0.01377317
   3         0.00831254
   4         0.00002515
   5         0.00025232
   6         0.00000000
   7        -0.00076259
   8        -0.00122261
   9         0.00000000
  10         0.00073363
  11         0.00048906
  12         0.00109401
  13         0.00008297
  14         0.00000000
  15         0.00000000
  16         0.49858272
  17         0.01377198
  18        -0.00831329
  19        -0.00003849
  20         0.00025060
  21         0.00000000
  22         0.00082669
  23        -0.00118046
  24         0.00000000
  25        -0.00074031
  26        -0.00048197
  27        -0.00109391
  28         0.00006764
  29         0.00000000
  30         0.00000000
  31         0.00020995
  32         0.00000579
  33        -0.00001286
  34         0.00008737
  35         0.00000205
  36         0.00000000
  37        -0.00122541
  38        -0.00002812
  39         0.00000000
  40         0.00000687
  41        -0.00000651
  42        -0.00000022
  43        -0.00014147
  44         0.00000000
  45         0.00000000
  46        -0.00041451
  47        -0.00001143
  48         0.00001860
  49        -0.00008726
  50        -0.00000286
  51         0.00000000
  52         0.00122406
  53         0.00003832
  54         0.00000000
  55         0.00000605
  56        -0.00000624
  57         0.00000052
  58        -0.00014148
  59         0.00000000
  60         0.00000000
  61         0.49775553
  62         0.01374868
  63        -0.00828109
  64         0.00003825
  65        -0.00025000
  66         0.00000000
  67        -0.00081770
  68         0.00117452
  69         0.00000000
  70        -0.00073996
  71        -0.00048217
  72        -0.00109248
  73         0.00006731
  74         0.00000000
  75         0.00000000
  76        -0.49693376
  77        -0.01372614
  78         0.00827289
  79        -0.00002489
  80        -0.00025169
  81         0.00000000
  82         0.00075316
  83         0.00121691
  84         0.00000000
  85         0.00073159
  86         0.00048736
  87         0.00109055
  88         0.00008264
  89         0.00000000
  90         0.00000000
  91        -0.00007954
  92         0.00079331
  93         0.00007934
  94        -0.00079193
  95         0.00007980
  96        -0.00079336
  97        -0.00007978
  98         0.00079331
Sym=     6a' 
Ene=   -11.2680
Spin= Alpha
Occup=    2.00000
   1        -0.47445003
   2        -0.01325410
   3         0.01330565
   4         0.00008226
   5         0.00023487
   6         0.00000000
   7        -0.00329387
   8        -0.00225128
   9         0.00000000
  10         0.00045504
  11         0.00030303
  12         0.00092881
  13         0.00012231
  14         0.00000000
  15         0.00000000
  16         0.47418847
  17         0.01324697
  18        -0.01330192
  19        -0.00009456
  20         0.00023021
  21         0.00000000
  22         0.00340765
  23        -0.00207395
  24         0.00000000
  25        -0.00046551
  26        -0.00029179
  27        -0.00092820
  28         0.00011226
  29         0.00000000
  30         0.00000000
  31         0.21240596
  32         0.00587257
  33        -0.01142699
  34         0.00000752
  35        -0.00028912
  36         0.00000000
  37        -0.00009680
  38         0.00372442
  39         0.00000000
  40         0.00033391
  41        -0.00005513
  42        -0.00023771
  43         0.00001211
  44         0.00000000
  45         0.00000000
  46        -0.21211913
  47        -0.00586472
  48         0.01141958
  49         0.00000774
  50        -0.00028874
  51         0.00000000
  52        -0.00010003
  53         0.00372236
  54         0.00000000
  55        -0.00033387
  56         0.00005476
  57         0.00023726
  58        -0.00001172
  59         0.00000000
  60         0.00000000
  61        -0.47598984
  62        -0.01329663
  63         0.01332967
  64        -0.00009470
  65         0.00023085
  66         0.00000000
  67         0.00341088
  68        -0.00207660
  69         0.00000000
  70         0.00046822
  71         0.00029399
  72         0.00093222
  73        -0.00011252
  74         0.00000000
  75         0.00000000
  76         0.47531374
  77         0.01327809
  78        -0.01332229
  79         0.00008228
  80         0.00023557
  81         0.00000000
  82        -0.00329485
  83        -0.00225498
  84         0.00000000
  85        -0.00045628
  86        -0.00030343
  87        -0.00093064
  88        -0.00012246
  89         0.00000000
  90         0.00000000
  91         0.00013172
  92        -0.00029759
  93        -0.00013156
  94         0.00029646
  95         0.00013145
  96        -0.00029512
  97        -0.00013139
  98         0.00029468
Sym=     7a' 
Ene=    -1.1581
Spin= Alpha
Occup=    2.00000
   1        -0.09542958
   2         0.18429121
   3         0.11586898
   4        -0.04757716
   5        -0.04013079
   6         0.00000000
   7        -0.00384745
   8        -0.00497716
   9         0.00000000
  10         0.00611914
  11         0.00786131
  12        -0.00879662
  13        -0.00063170
  14         0.00000000
  15         0.00000000
  16        -0.09542992
  17         0.18429191
  18         0.11586880
  19        -0.04963687
  20         0.03755395
  21         0.00000000
  22        -0.00410486
  23         0.00476602
  24         0.00000000
  25         0.00606611
  26         0.00791429
  27        -0.00879664
  28         0.00052184
  29         0.00000000
  30         0.00000000
  31        -0.08483138
  32         0.16479278
  33         0.10024251
  34         0.00188417
  35        -0.07111936
  36         0.00000000
  37         0.00032259
  38        -0.01217743
  39         0.00000000
  40         0.00859630
  41         0.00134002
  42        -0.00801101
  43         0.00022230
  44         0.00000000
  45         0.00000000
  46        -0.08483155
  47         0.16479314
  48         0.10024336
  49        -0.00188443
  50         0.07111944
  51         0.00000000
  52        -0.00032288
  53         0.01217767
  54         0.00000000
  55         0.00859630
  56         0.00134002
  57        -0.00801102
  58         0.00022227
  59         0.00000000
  60         0.00000000
  61        -0.09543038
  62         0.18429268
  63         0.11586929
  64         0.04963601
  65        -0.03755382
  66         0.00000000
  67         0.00410522
  68        -0.00476629
  69         0.00000000
  70         0.00606621
  71         0.00791429
  72        -0.00879668
  73         0.00052177
  74         0.00000000
  75         0.00000000
  76        -0.09542992
  77         0.18429188
  78         0.11586892
  79         0.04757717
  80         0.04013090
  81         0.00000000
  82         0.00384699
  83         0.00497722
  84         0.00000000
  85         0.00611916
  86         0.00786136
  87        -0.00879665
  88        -0.00063172
  89         0.00000000
  90         0.00000000
  91         0.03702972
  92         0.00294296
  93         0.03702911
  94         0.00294296
  95         0.03702892
  96         0.00294305
  97         0.03702854
  98         0.00294268
Sym=     8a' 
Ene=    -1.0341
Spin= Alpha
Occup=    2.00000
   1         0.11099676
   2        -0.21723586
   3        -0.16949182
   4        -0.01127354
   5         0.06125037
   6         0.00000000
   7        -0.00789690
   8         0.00467880
   9         0.00000000
  10        -0.00286088
  11        -0.01203790
  12         0.00922210
  13        -0.00174111
  14         0.00000000
  15         0.00000000
  16         0.11099850
  17        -0.21723920
  18        -0.16949421
  19        -0.00801058
  20        -0.06175947
  21         0.00000000
  22        -0.00763853
  23        -0.00508984
  24         0.00000000
  25        -0.00304639
  26        -0.01185261
  27         0.00922222
  28         0.00229156
  29         0.00000000
  30         0.00000000
  31        -0.00000171
  32         0.00000339
  33         0.00000257
  34        -0.11291256
  35        -0.00299361
  36         0.00000000
  37        -0.00940120
  38        -0.00024939
  39         0.00000000
  40        -0.00057475
  41         0.00057484
  42        -0.00000014
  43         0.01251504
  44         0.00000000
  45         0.00000000
  46         0.00000231
  47        -0.00000459
  48        -0.00000318
  49        -0.11291235
  50        -0.00299417
  51         0.00000000
  52        -0.00940114
  53        -0.00024952
  54         0.00000000
  55         0.00057474
  56        -0.00057488
  57         0.00000020
  58        -0.01251502
  59         0.00000000
  60         0.00000000
  61        -0.11099875
  62         0.21723965
  63         0.16949431
  64        -0.00801272
  65        -0.06175853
  66         0.00000000
  67        -0.00763847
  68        -0.00509003
  69         0.00000000
  70         0.00304658
  71         0.01185249
  72        -0.00922226
  73        -0.00229169
  74         0.00000000
  75         0.00000000
  76        -0.11099623
  77         0.21723485
  78         0.16949098
  79        -0.01127421
  80         0.06125047
  81         0.00000000
  82        -0.00789746
  83         0.00467872
  84         0.00000000
  85         0.00286082
  86         0.01203792
  87        -0.00922205
  88         0.00174110
  89         0.00000000
  90         0.00000000
  91         0.06674302
  92         0.01133066
  93         0.06674079
  94         0.01133030
  95        -0.06674094
  96        -0.01133050
  97        -0.06674095
  98        -0.01133024
Sym=     9a' 
Ene=    -0.9977
Spin= Alpha
Occup=    2.00000
   1        -0.07122826
   2         0.13956888
   3         0.11021753
   4        -0.06674157
   5         0.08093380
   6         0.00000000
   7        -0.00326037
   8         0.01657657
   9         0.00000000
  10         0.01340973
  11        -0.00438017
  12        -0.00581287
  13        -0.00450212
  14         0.00000000
  15         0.00000000
  16         0.07122474
  17        -0.13956194
  18        -0.11021195
  19         0.06236311
  20         0.08435846
  21         0.00000000
  22         0.00237812
  23         0.01672660
  24         0.00000000
  25        -0.01294718
  26         0.00391818
  27         0.00581258
  28        -0.00556360
  29         0.00000000
  30         0.00000000
  31        -0.12313321
  32         0.24372256
  33         0.18670625
  34         0.00185128
  35        -0.06982118
  36         0.00000000
  37         0.00042931
  38        -0.01619205
  39         0.00000000
  40         0.01291937
  41        -0.00273528
  42        -0.00972964
  43         0.00047930
  44         0.00000000
  45         0.00000000
  46         0.12313356
  47        -0.24372333
  48        -0.18670684
  49         0.00185167
  50        -0.06982129
  51         0.00000000
  52         0.00042942
  53        -0.01619210
  54         0.00000000
  55        -0.01291937
  56         0.00273530
  57         0.00972966
  58        -0.00047928
  59         0.00000000
  60         0.00000000
  61        -0.07122534
  62         0.13956309
  63         0.11021269
  64         0.06236167
  65         0.08435874
  66         0.00000000
  67         0.00237815
  68         0.01672644
  69         0.00000000
  70         0.01294728
  71        -0.00391819
  72        -0.00581264
  73         0.00556346
  74         0.00000000
  75         0.00000000
  76         0.07122835
  77        -0.13956907
  78        -0.11021776
  79        -0.06674201
  80         0.08093432
  81         0.00000000
  82        -0.00326065
  83         0.01657668
  84         0.00000000
  85        -0.01340976
  86         0.00438020
  87         0.00581288
  88         0.00450213
  89         0.00000000
  90         0.00000000
  91         0.04394681
  92         0.00784461
  93        -0.04394833
  94        -0.00784505
  95         0.04394829
  96         0.00784497
  97        -0.04394531
  98        -0.00784427
Sym=    10a' 
Ene=    -0.8346
Spin= Alpha
Occup=    2.00000
   1         0.08775785
   2        -0.17702509
   3        -0.16485515
   4         0.00136753
   5        -0.11348549
   6         0.00000000
   7        -0.02614390
   8        -0.04693167
   9         0.00000000
  10        -0.01187633
  11         0.00212674
  12         0.00661143
  13        -0.00189991
  14         0.00000000
  15         0.00000000
  16        -0.08775651
  17         0.17702218
  18         0.16485353
  19         0.00463794
  20        -0.11340258
  21         0.00000000
  22         0.02859081
  23        -0.04548239
  24         0.00000000
  25         0.01201103
  26        -0.00226167
  27        -0.00661131
  28        -0.00103358
  29         0.00000000
  30         0.00000000
  31        -0.00000122
  32         0.00000257
  33         0.00000098
  34        -0.20398197
  35        -0.00540652
  36         0.00000000
  37        -0.03610689
  38        -0.00095649
  39         0.00000000
  40        -0.00060469
  41         0.00060466
  42        -0.00000008
  43         0.01316516
  44         0.00000000
  45         0.00000000
  46        -0.00000226
  47         0.00000465
  48         0.00000331
  49         0.20398373
  50         0.00540738
  51         0.00000000
  52         0.03610682
  53         0.00095690
  54         0.00000000
  55        -0.00060472
  56         0.00060469
  57        -0.00000016
  58         0.01316530
  59         0.00000000
  60         0.00000000
  61        -0.08775621
  62         0.17702165
  63         0.16485246
  64        -0.00464224
  65         0.11340367
  66         0.00000000
  67        -0.02859130
  68         0.04548208
  69         0.00000000
  70         0.01201119
  71        -0.00226185
  72        -0.00661134
  73        -0.00103391
  74         0.00000000
  75         0.00000000
  76         0.08775854
  77        -0.17702648
  78        -0.16485724
  79        -0.00136694
  80         0.11348486
  81         0.00000000
  82         0.02614368
  83         0.04693179
  84         0.00000000
  85        -0.01187628
  86         0.00212665
  87         0.00661148
  88        -0.00190007
  89         0.00000000
  90         0.00000000
  91         0.09925661
  92         0.02836576
  93        -0.09925852
  94        -0.02836671
  95        -0.09925782
  96        -0.02836636
  97         0.09925386
  98         0.02836499
Sym=    11a' 
Ene=    -0.7984
Spin= Alpha
Occup=    2.00000
   1        -0.04364515
   2         0.08874730
   3         0.07911765
   4         0.18481070
   5        -0.09436181
   6         0.00000000
   7         0.06620601
   8        -0.02280864
   9         0.00000000
  10        -0.00214432
  11         0.00875659
  12        -0.00333971
  13         0.00769061
  14         0.00000000
  15         0.00000000
  16        -0.04364796
  17         0.08875281
  18         0.07912364
  19         0.17955137
  20         0.10401490
  21         0.00000000
  22         0.06490581