[Molden Format]
[N_Atoms]
                   10
[Atoms] (AU)
C1          1      6           4.91604692      3.80358405      0.00000000
C2          2      6           4.98609907      1.16034853      0.00000000
C3          3      6           2.59296880      5.06293534      0.00000000
C4          4      6           2.73299751     -0.22028537      0.00000000
C5          5      6           0.33986724      3.68230143      0.00000000
C6          6      6           0.40991939      1.03906591      0.00000000
H7          7      1          -1.45374741      4.66312598      0.00000000
H8          8      1          -1.32923336     -0.03539457      0.00000000
H9          9      1           6.65519967      4.87804453      0.00000000
H10        10      1           6.77973262      0.17950508      0.00000000
[Charge] (Mulliken)
 -0.21753184488955224     
 -0.21753199969812087     
   2.3208480322360003E-002
   2.3208927110878186E-002
 -0.21753095548133405     
 -0.21753250389226686     
  0.20592767104112153     
  0.20592754365718513     
  0.20592753954175613     
  0.20592714228647835     
[GTO] (AU)
   1
   s   6
  3.047524880E+03  1.834737132E-03
  4.573695180E+02  1.403732281E-02
  1.039486850E+02  6.884262227E-02
  2.921015530E+01  2.321844432E-01
  9.286662960E+00  4.679413484E-01
  3.163926960E+00  3.623119853E-01
   s   3
  7.868272350E+00 -1.193324198E-01
  1.881288540E+00 -1.608541517E-01
  5.442492580E-01  1.143456438E+00
   s   1
  1.687144782E-01  1.000000000E+00
   p   3
  7.868272350E+00  6.899906659E-02
  1.881288540E+00  3.164239610E-01
  5.442492580E-01  7.443082909E-01
   p   1
  1.687144782E-01  1.000000000E+00
   d   1
  8.000000000E-01  1.000000000E+00
 
   2
   s   6
  3.047524880E+03  1.834737132E-03
  4.573695180E+02  1.403732281E-02
  1.039486850E+02  6.884262227E-02
  2.921015530E+01  2.321844432E-01
  9.286662960E+00  4.679413484E-01
  3.163926960E+00  3.623119853E-01
   s   3
  7.868272350E+00 -1.193324198E-01
  1.881288540E+00 -1.608541517E-01
  5.442492580E-01  1.143456438E+00
   s   1
  1.687144782E-01  1.000000000E+00
   p   3
  7.868272350E+00  6.899906659E-02
  1.881288540E+00  3.164239610E-01
  5.442492580E-01  7.443082909E-01
   p   1
  1.687144782E-01  1.000000000E+00
   d   1
  8.000000000E-01  1.000000000E+00
 
   3
   s   6
  3.047524880E+03  1.834737132E-03
  4.573695180E+02  1.403732281E-02
  1.039486850E+02  6.884262227E-02
  2.921015530E+01  2.321844432E-01
  9.286662960E+00  4.679413484E-01
  3.163926960E+00  3.623119853E-01
   s   3
  7.868272350E+00 -1.193324198E-01
  1.881288540E+00 -1.608541517E-01
  5.442492580E-01  1.143456438E+00
   s   1
  1.687144782E-01  1.000000000E+00
   p   3
  7.868272350E+00  6.899906659E-02
  1.881288540E+00  3.164239610E-01
  5.442492580E-01  7.443082909E-01
   p   1
  1.687144782E-01  1.000000000E+00
   d   1
  8.000000000E-01  1.000000000E+00
 
   4
   s   6
  3.047524880E+03  1.834737132E-03
  4.573695180E+02  1.403732281E-02
  1.039486850E+02  6.884262227E-02
  2.921015530E+01  2.321844432E-01
  9.286662960E+00  4.679413484E-01
  3.163926960E+00  3.623119853E-01
   s   3
  7.868272350E+00 -1.193324198E-01
  1.881288540E+00 -1.608541517E-01
  5.442492580E-01  1.143456438E+00
   s   1
  1.687144782E-01  1.000000000E+00
   p   3
  7.868272350E+00  6.899906659E-02
  1.881288540E+00  3.164239610E-01
  5.442492580E-01  7.443082909E-01
   p   1
  1.687144782E-01  1.000000000E+00
   d   1
  8.000000000E-01  1.000000000E+00
 
   5
   s   6
  3.047524880E+03  1.834737132E-03
  4.573695180E+02  1.403732281E-02
  1.039486850E+02  6.884262227E-02
  2.921015530E+01  2.321844432E-01
  9.286662960E+00  4.679413484E-01
  3.163926960E+00  3.623119853E-01
   s   3
  7.868272350E+00 -1.193324198E-01
  1.881288540E+00 -1.608541517E-01
  5.442492580E-01  1.143456438E+00
   s   1
  1.687144782E-01  1.000000000E+00
   p   3
  7.868272350E+00  6.899906659E-02
  1.881288540E+00  3.164239610E-01
  5.442492580E-01  7.443082909E-01
   p   1
  1.687144782E-01  1.000000000E+00
   d   1
  8.000000000E-01  1.000000000E+00
 
   6
   s   6
  3.047524880E+03  1.834737132E-03
  4.573695180E+02  1.403732281E-02
  1.039486850E+02  6.884262227E-02
  2.921015530E+01  2.321844432E-01
  9.286662960E+00  4.679413484E-01
  3.163926960E+00  3.623119853E-01
   s   3
  7.868272350E+00 -1.193324198E-01
  1.881288540E+00 -1.608541517E-01
  5.442492580E-01  1.143456438E+00
   s   1
  1.687144782E-01  1.000000000E+00
   p   3
  7.868272350E+00  6.899906659E-02
  1.881288540E+00  3.164239610E-01
  5.442492580E-01  7.443082909E-01
   p   1
  1.687144782E-01  1.000000000E+00
   d   1
  8.000000000E-01  1.000000000E+00
 
   7
   s   3
  1.873113696E+01  3.349460434E-02
  2.825394365E+00  2.347269535E-01
  6.401216923E-01  8.137573261E-01
   s   1
  1.612777588E-01  1.000000000E+00
 
   8
   s   3
  1.873113696E+01  3.349460434E-02
  2.825394365E+00  2.347269535E-01
  6.401216923E-01  8.137573261E-01
   s   1
  1.612777588E-01  1.000000000E+00
 
   9
   s   3
  1.873113696E+01  3.349460434E-02
  2.825394365E+00  2.347269535E-01
  6.401216923E-01  8.137573261E-01
   s   1
  1.612777588E-01  1.000000000E+00
 
  10
   s   3
  1.873113696E+01  3.349460434E-02
  2.825394365E+00  2.347269535E-01
  6.401216923E-01  8.137573261E-01
   s   1
  1.612777588E-01  1.000000000E+00
 
[MO]
Sym=     1a' 
Ene=   -11.2430
Spin= Alpha
Occup=    2.00000
   1        -0.03966951
   2        -0.00094786
   3        -0.00632528
   4        -0.00007496
   5         0.00008168
   6         0.00000000
   7         0.00334957
   8         0.00071054
   9         0.00000000
  10         0.00034763
  11         0.00043105
  12         0.00024059
  13        -0.00010736
  14         0.00000000
  15         0.00000000
  16         0.03964158
  17         0.00094708
  18         0.00632338
  19         0.00007045
  20         0.00008527
  21         0.00000000
  22        -0.00338141
  23         0.00053214
  24         0.00000000
  25        -0.00033781
  26        -0.00044045
  27        -0.00024042
  28        -0.00010156
  29         0.00000000
  30         0.00000000
  31        -0.70215125
  32        -0.01941961
  33         0.01297224
  34        -0.00002182
  35         0.00082350
  36         0.00000000
  37         0.00009121
  38        -0.00344210
  39         0.00000000
  40         0.00099611
  41         0.00159563
  42         0.00148101
  43        -0.00001836
  44         0.00000000
  45         0.00000000
  46         0.70167163
  47         0.01940662
  48        -0.01296581
  49        -0.00002181
  50         0.00082297
  51         0.00000000
  52         0.00009118
  53        -0.00344063
  54         0.00000000
  55        -0.00099541
  56        -0.00159453
  57        -0.00147991
  58         0.00001835
  59         0.00000000
  60         0.00000000
  61        -0.03966554
  62        -0.00094775
  63        -0.00632537
  64         0.00007053
  65         0.00008554
  66         0.00000000
  67        -0.00338254
  68         0.00053213
  69         0.00000000
  70         0.00033802
  71         0.00044064
  72         0.00024058
  73         0.00010166
  74         0.00000000
  75         0.00000000
  76         0.03963945
  77         0.00094702
  78         0.00632337
  79        -0.00007487
  80         0.00008141
  81         0.00000000
  82         0.00334848
  83         0.00071052
  84         0.00000000
  85        -0.00034741
  86        -0.00043086
  87        -0.00024041
  88         0.00010726
  89         0.00000000
  90         0.00000000
  91        -0.00003539
  92        -0.00067738
  93         0.00003542
  94         0.00067710
  95        -0.00003538
  96        -0.00067738
  97         0.00003542
  98         0.00067709
Sym=     2a' 
Ene=   -11.2430
Spin= Alpha
Occup=    2.00000
   1         0.04421259
   2         0.00122977
   3         0.00280761
   4         0.00013495
   5        -0.00038955
   6         0.00000000
   7        -0.00160807
   8        -0.00005341
   9         0.00000000
  10        -0.00032704
  11        -0.00028468
  12        -0.00025545
  13         0.00014215
  14         0.00000000
  15         0.00000000
  16         0.04424186
  17         0.00123047
  18         0.00281188
  19         0.00011418
  20         0.00039621
  21         0.00000000
  22        -0.00161092
  23        -0.00003150
  24         0.00000000
  25        -0.00031413
  26        -0.00029812
  27        -0.00025562
  28        -0.00014401
  29         0.00000000
  30         0.00000000
  31         0.70111994
  32         0.01899145
  33        -0.00934413
  34         0.00002033
  35        -0.00076707
  36         0.00000000
  37        -0.00005657
  38         0.00213474
  39         0.00000000
  40        -0.00103212
  41        -0.00160636
  42        -0.00159888
  43         0.00001759
  44         0.00000000
  45         0.00000000
  46         0.70159917
  47         0.01900470
  48        -0.00935291
  49        -0.00002034
  50         0.00076763
  51         0.00000000
  52         0.00005663
  53        -0.00213706
  54         0.00000000
  55        -0.00103281
  56        -0.00160745
  57        -0.00159989
  58         0.00001760
  59         0.00000000
  60         0.00000000
  61         0.04420772
  62         0.00122963
  63         0.00280767
  64        -0.00011413
  65        -0.00039615
  66         0.00000000
  67         0.00160866
  68         0.00003185
  69         0.00000000
  70        -0.00031388
  71        -0.00029781
  72        -0.00025544
  73        -0.00014394
  74         0.00000000
  75         0.00000000
  76         0.04423901
  77         0.00123040
  78         0.00281187
  79        -0.00013501
  80         0.00038960
  81         0.00000000
  82         0.00161033
  83         0.00005388
  84         0.00000000
  85        -0.00032727
  86        -0.00028497
  87        -0.00025561
  88         0.00014223
  89         0.00000000
  90         0.00000000
  91        -0.00005245
  92         0.00042186
  93        -0.00005243
  94         0.00042232
  95        -0.00005245
  96         0.00042186
  97        -0.00005243
  98         0.00042232
Sym=     3a' 
Ene=   -11.2340
Spin= Alpha
Occup=    2.00000
   1        -0.49949068
   2        -0.01407182
   3         0.00429182
   4         0.00012089
   5         0.00002651
   6         0.00000000
   7        -0.00050637
   8         0.00043573
   9         0.00000000
  10         0.00110195
  11         0.00113299
  12         0.00125219
  13         0.00001647
  14         0.00000000
  15         0.00000000
  16        -0.49962686
  17        -0.01407565
  18         0.00429277
  19         0.00012217
  20        -0.00002011
  21         0.00000000
  22        -0.00048224
  23        -0.00046189
  24         0.00000000
  25         0.00110384
  26         0.00113159
  27         0.00125253
  28        -0.00001830
  29         0.00000000
  30         0.00000000
  31         0.00025450
  32         0.00000774
  33        -0.00001907
  34         0.00015091
  35         0.00000311
  36         0.00000000
  37        -0.00121450
  38        -0.00002727
  39         0.00000000
  40         0.00000368
  41        -0.00000195
  42        -0.00000004
  43        -0.00004986
  44         0.00000000
  45         0.00000000
  46         0.00023414
  47         0.00000714
  48        -0.00001606
  49         0.00015094
  50         0.00000481
  51         0.00000000
  52        -0.00121502
  53        -0.00003614
  54         0.00000000
  55        -0.00000109
  56         0.00000255
  57        -0.00000005
  58         0.00005001
  59         0.00000000
  60         0.00000000
  61         0.49553848
  62         0.01396206
  63        -0.00425115
  64         0.00012150
  65        -0.00002086
  66         0.00000000
  67        -0.00047756
  68        -0.00045897
  69         0.00000000
  70        -0.00109600
  71        -0.00112301
  72        -0.00124202
  73         0.00001777
  74         0.00000000
  75         0.00000000
  76         0.49600868
  77         0.01397537
  78        -0.00426038
  79         0.00012035
  80         0.00002742
  81         0.00000000
  82        -0.00050271
  83         0.00043153
  84         0.00000000
  85        -0.00109517
  86        -0.00112510
  87        -0.00124309
  88        -0.00001611
  89         0.00000000
  90         0.00000000
  91        -0.00012263
  92         0.00077443
  93        -0.00012271
  94         0.00077499
  95         0.00012345
  96        -0.00078173
  97         0.00012345
  98        -0.00078202
Sym=     4a' 
Ene=   -11.2340
Spin= Alpha
Occup=    2.00000
   1         0.49374953
   2         0.01370075
   3        -0.00476302
   4        -0.00008064
   5         0.00010645
   6         0.00000000
   7         0.00055087
   8        -0.00044848
   9         0.00000000
  10        -0.00094998
  11        -0.00107801
  12        -0.00128053
  13        -0.00005451
  14         0.00000000
  15         0.00000000
  16         0.49386493
  17         0.01370406
  18        -0.00476749
  19        -0.00007493
  20        -0.00011053
  21         0.00000000
  22         0.00052778
  23         0.00047625
  24         0.00000000
  25        -0.00095542
  26        -0.00107273
  27        -0.00128075
  28         0.00006206
  29         0.00000000
  30         0.00000000
  31        -0.06325365
  32        -0.00192955
  33         0.00458696
  34        -0.00000532
  35         0.00022161
  36         0.00000000
  37         0.00002622
  38        -0.00115527
  39         0.00000000
  40        -0.00034149
  41        -0.00008004
  42         0.00001071
  43        -0.00000817
  44         0.00000000
  45         0.00000000
  46        -0.06329387
  47        -0.00193076
  48         0.00459269
  49         0.00000647
  50        -0.00022172
  51         0.00000000
  52        -0.00003554
  53         0.00115688
  54         0.00000000
  55        -0.00034184
  56        -0.00008017
  57         0.00001069
  58        -0.00000779
  59         0.00000000
  60         0.00000000
  61         0.49735345
  62         0.01380229
  63        -0.00479237
  64         0.00007576
  65         0.00011047
  66         0.00000000
  67        -0.00052961
  68        -0.00048103
  69         0.00000000
  70        -0.00096341
  71        -0.00108103
  72        -0.00128960
  73         0.00006213
  74         0.00000000
  75         0.00000000
  76         0.49786176
  77         0.01381670
  78        -0.00480343
  79         0.00008165
  80        -0.00010614
  81         0.00000000
  82        -0.00055648
  83         0.00045043
  84         0.00000000
  85        -0.00095878
  86        -0.00108695
  87        -0.00129074
  88        -0.00005470
  89         0.00000000
  90         0.00000000
  91        -0.00010318
  92         0.00094255
  93        -0.00010329
  94         0.00094307
  95        -0.00010227
  96         0.00093688
  97        -0.00010231
  98         0.00093684
Sym=     5a' 
Ene=   -11.2330
Spin= Alpha
Occup=    2.00000
   1        -0.50107731
   2        -0.01418417
   3         0.00844884
   4         0.00013200
   5         0.00015265
   6         0.00000000
   7        -0.00096281
   8        -0.00126073
   9         0.00000000
  10         0.00083657
  11         0.00061257
  12         0.00118094
  13         0.00009528
  14         0.00000000
  15         0.00000000
  16         0.50096717
  17         0.01418098
  18        -0.00844810
  19        -0.00013986
  20         0.00014539
  21         0.00000000
  22         0.00102815
  23        -0.00120805
  24         0.00000000
  25        -0.00084438
  26        -0.00060420
  27        -0.00118068
  28         0.00008108
  29         0.00000000
  30         0.00000000
  31         0.00034534
  32         0.00001038
  33        -0.00005521
  34         0.00011288
  35         0.00000170
  36         0.00000000
  37        -0.00123810
  38        -0.00001480
  39         0.00000000
  40         0.00001040
  41        -0.00000546
  42         0.00000024
  43        -0.00015442
  44         0.00000000
  45         0.00000000
  46        -0.00036852
  47        -0.00001110
  48         0.00005700
  49        -0.00011272
  50        -0.00000437
  51         0.00000000
  52         0.00123640
  53         0.00005123
  54         0.00000000
  55         0.00000366
  56        -0.00000877
  57        -0.00000024
  58        -0.00015449
  59         0.00000000
  60         0.00000000
  61         0.49506226
  62         0.01401293
  63        -0.00829708
  64         0.00013805
  65        -0.00014345
  66         0.00000000
  67        -0.00099266
  68         0.00118277
  69         0.00000000
  70        -0.00083675
  71        -0.00059856
  72        -0.00116778
  73         0.00007979
  74         0.00000000
  75         0.00000000
  76        -0.49456698
  77        -0.01399903
  78         0.00829261
  79        -0.00013015
  80        -0.00015058
  81         0.00000000
  82         0.00092810
  83         0.00123413
  84         0.00000000
  85         0.00082774
  86         0.00060542
  87         0.00116651
  88         0.00009386
  89         0.00000000
  90         0.00000000
  91        -0.00007581
  92         0.00071709
  93         0.00007570
  94        -0.00071624
  95         0.00007735
  96        -0.00072183
  97        -0.00007731
  98         0.00072172
Sym=     6a' 
Ene=   -11.2330
Spin= Alpha
Occup=    2.00000
   1        -0.49333783
   2        -0.01403639
   3         0.01222889
   4         0.00014142
   5         0.00016296
   6         0.00000000
   7        -0.00274271
   8        -0.00213931
   9         0.00000000
  10         0.00064807
  11         0.00051345
  12         0.00108578
  13         0.00011140
  14         0.00000000
  15         0.00000000
  16         0.49319590
  17         0.01403252
  18        -0.01222739
  19        -0.00014985
  20         0.00015531
  21         0.00000000
  22         0.00285202
  23        -0.00199116
  24         0.00000000
  25        -0.00065767
  26        -0.00050332
  27        -0.00108540
  28         0.00010253
  29         0.00000000
  30         0.00000000
  31         0.05675391
  32         0.00170797
  33        -0.00896658
  34         0.00000491
  35        -0.00021312
  36         0.00000000
  37        -0.00006926
  38         0.00291335
  39         0.00000000
  40         0.00053879
  41         0.00026592
  42         0.00003939
  43         0.00000933
  44         0.00000000
  45         0.00000000
  46        -0.05671856
  47        -0.00170688
  48         0.00896375
  49         0.00000632
  50        -0.00021295
  51         0.00000000
  52        -0.00008471
  53         0.00291222
  54         0.00000000
  55        -0.00053865
  56        -0.00026577
  57        -0.00003938
  58        -0.00000739
  59         0.00000000
  60         0.00000000
  61        -0.49973541
  62        -0.01421749
  63         0.01233508
  64        -0.00015163
  65         0.00015705
  66         0.00000000
  67         0.00286498
  68        -0.00200581
  69         0.00000000
  70         0.00066878
  71         0.00051153
  72         0.00110090
  73        -0.00010356
  74         0.00000000
  75         0.00000000
  76         0.49925228
  77         0.01420398
  78        -0.01233059
  79         0.00014301
  80         0.00016492
  81         0.00000000
  82        -0.00275420
  83        -0.00215519
  84         0.00000000
  85        -0.00065787
  86        -0.00052038
  87        -0.00109965
  88        -0.00011255
  89         0.00000000
  90         0.00000000
  91         0.00012646
  92        -0.00041430
  93        -0.00012635
  94         0.00041343
  95         0.00012546
  96        -0.00040503
  97        -0.00012543
  98         0.00040470
Sym=     7a' 
Ene=    -1.0798
Spin= Alpha
Occup=    2.00000
   1        -0.07399372
   2         0.13830340
   3         0.08425494
   4        -0.07335134
   5         0.06295584
   6         0.00000000
   7        -0.01018270
   8         0.03072881
   9         0.00000000
  10         0.01099705
  11         0.00228535
  12        -0.00694231
  13        -0.00212262
  14         0.00000000
  15         0.00000000
  16        -0.07399400
  17         0.13830398
  18         0.08425465
  19        -0.06991466
  20        -0.06675319
  21         0.00000000
  22        -0.00853997
  23        -0.03122546
  24         0.00000000
  25         0.01077808
  26         0.00250425
  27        -0.00694233
  28         0.00264289
  29         0.00000000
  30         0.00000000
  31        -0.11431533
  32         0.22373176
  33         0.15443644
  34         0.00205426
  35        -0.07754995
  36         0.00000000
  37         0.00056325
  38        -0.02125504
  39         0.00000000
  40         0.01317454
  41        -0.00214640
  42        -0.00878586
  43         0.00046930
  44         0.00000000
  45         0.00000000
  46        -0.11431508
  47         0.22373128
  48         0.15443654
  49        -0.00205459
  50         0.07754981
  51         0.00000000
  52        -0.00056349
  53         0.02125511
  54         0.00000000
  55         0.01317447
  56        -0.00214638
  57        -0.00878584
  58         0.00046928
  59         0.00000000
  60         0.00000000
  61        -0.07399473
  62         0.13830534
  63         0.08425544
  64         0.06991370
  65         0.06675392
  66         0.00000000
  67         0.00854010
  68         0.03122555
  69         0.00000000
  70         0.01077819
  71         0.00250425
  72        -0.00694240
  73         0.00264280
  74         0.00000000
  75         0.00000000
  76        -0.07399375
  77         0.13830344
  78         0.08425463
  79         0.07335108
  80        -0.06295577
  81         0.00000000
  82         0.01018235
  83        -0.03072879
  84         0.00000000
  85         0.01099704
  86         0.00228540
  87        -0.00694232
  88        -0.00212264
  89         0.00000000
  90         0.00000000
  91         0.04153301
  92         0.01496717
  93         0.04153210
  94         0.01496721
  95         0.04153200
  96         0.01496722
  97         0.04153163
  98         0.01496684
Sym=     8a' 
Ene=    -0.9804
Spin= Alpha
Occup=    2.00000
   1        -0.07273551
   2         0.14146457
   3         0.10411286
   4        -0.07009735
   5         0.08314196
   6         0.00000000
   7         0.00183268
   8         0.02076304
   9         0.00000000
  10         0.01419047
  11        -0.00459546
  12        -0.00548643
  13        -0.00457636
  14         0.00000000
  15         0.00000000
  16         0.07273735
  17        -0.14146802
  18        -0.10411541
  19         0.06559688
  20         0.08674034
  21         0.00000000
  22        -0.00292993
  23         0.02063793
  24         0.00000000
  25        -0.01371861
  26         0.00412339
  27         0.00548659
  28        -0.00569815
  29         0.00000000
  30         0.00000000
  31        -0.11960083
  32         0.23376164
  33         0.18324323
  34         0.00248455
  35        -0.09383641
  36         0.00000000
  37         0.00108318
  38        -0.04087665
  39         0.00000000
  40         0.01402890
  41        -0.00202627
  42        -0.00903565
  43         0.00049186
  44         0.00000000
  45         0.00000000
  46         0.11960137
  47        -0.23376271
  48        -0.18324393
  49         0.00248497
  50        -0.09383686
  51         0.00000000
  52         0.00108328
  53        -0.04087678
  54         0.00000000
  55        -0.01402891
  56         0.00202626
  57         0.00903569
  58        -0.00049184
  59         0.00000000
  60         0.00000000
  61        -0.07273767
  62         0.14146864
  63         0.10411582
  64         0.06559532
  65         0.08674065
  66         0.00000000
  67        -0.00292998
  68         0.02063784
  69         0.00000000
  70         0.01371866
  71        -0.00412339
  72        -0.00548662
  73         0.00569802
  74         0.00000000
  75         0.00000000
  76         0.07273590
  77        -0.14146529
  78        -0.10411345
  79        -0.07009794
  80         0.08314249
  81         0.00000000
  82         0.00183235
  83         0.02076317
  84         0.00000000
  85        -0.01419054
  86         0.00459548
  87         0.00548647
  88         0.00457636
  89         0.00000000
  90         0.00000000
  91         0.04511652
  92         0.00701836
  93        -0.04511453
  94        -0.00701792
  95         0.04511432
  96         0.00701775
  97        -0.04511517
  98        -0.00701817
Sym=     9a' 
Ene=    -0.8921
Spin= Alpha
Occup=    2.00000
   1         0.08788242
   2        -0.16663962
   3        -0.14355744
   4        -0.00707371
   5        -0.10454482
   6         0.00000000
   7        -0.01008023
   8        -0.05869846
   9         0.00000000
  10        -0.00988802
  11        -0.00527786
  12         0.00737158
  13        -0.00155636
  14         0.00000000
  15         0.00000000
  16         0.08787903
  17        -0.16663287
  18        -0.14355155
  19        -0.01260069
  20         0.10401934
  21         0.00000000
  22        -0.01317527
  23         0.05808104
  24         0.00000000
  25        -0.01001702
  26        -0.00514843
  27         0.00737132
  28         0.00126592
  29         0.00000000
  30         0.00000000
  31         0.00000145
  32        -0.00000284
  33        -0.00000256
  34        -0.19040571
  35        -0.00504512
  36         0.00000000
  37        -0.03299610
  38        -0.00087398
  39         0.00000000
  40        -0.00051000
  41         0.00050981
  42         0.00000010
  43         0.01109906
  44         0.00000000
  45         0.00000000
  46        -0.00000035
  47         0.00000064
  48         0.00000111
  49        -0.19040240
  50        -0.00504629
  51         0.00000000
  52        -0.03299568
  53        -0.00087429
  54         0.00000000
  55         0.00051002
  56        -0.00050988
  57        -0.00000001
  58        -0.01109884
  59         0.00000000
  60         0.00000000
  61        -0.08788138
  62         0.16663758
  63         0.14355523
  64        -0.01260541
  65         0.10402206
  66         0.00000000
  67        -0.01317624
  68         0.05808182
  69         0.00000000
  70         0.01001740
  71         0.00514837
  72        -0.00737153
  73        -0.00126623
  74         0.00000000
  75         0.00000000
  76        -0.08788088
  77         0.16663660
  78         0.14355470
  79        -0.00707587
  80        -0.10454275
  81         0.00000000
  82        -0.01008105
  83        -0.05869782
  84         0.00000000
  85         0.00988777
  86         0.00527798
  87        -0.00737147
  88         0.00155633
  89         0.00000000
  90         0.00000000
  91         0.10040550
  92         0.04356047
  93         0.10040378
  94         0.04356001
  95        -0.10040465
  96        -0.04356040
  97        -0.10040032
  98        -0.04355896
Sym=    10a' 
Ene=    -0.8213
Spin= Alpha
Occup=    2.00000
   1         0.08724723
   2        -0.17267193
   3        -0.16197687
   4         0.00451301
   5        -0.11510926
   6         0.00000000
   7        -0.01980067
   8        -0.05396916
   9         0.00000000
  10        -0.01188738
  11         0.00132633
  12         0.00616621
  13        -0.00162015
  14         0.00000000
  15         0.00000000
  16        -0.08724840
  17         0.17267402
  18         0.16197966
  19         0.00158823
  20        -0.11518862
  21         0.00000000
  22         0.02263119
  23        -0.05284584
  24         0.00000000
  25         0.01199874
  26        -0.00143754
  27        -0.00616629
  28        -0.00080388
  29         0.00000000
  30         0.00000000
  31         0.00000056
  32        -0.00000106
  33        -0.00000197
  34        -0.20443178
  35        -0.00541785
  36         0.00000000
  37        -0.03158851
  38        -0.00083678
  39         0.00000000
  40        -0.00062767
  41         0.00062759
  42         0.00000003
  43         0.01366221
  44         0.00000000
  45         0.00000000
  46        -0.00000044
  47         0.00000092
  48         0.00000040
  49         0.20443729
  50         0.00541901
  51         0.00000000
  52         0.03158914
  53         0.00083743
  54         0.00000000
  55        -0.00062770
  56         0.00062763
  57        -0.00000005
  58         0.01366253
  59         0.00000000
  60         0.00000000
  61        -0.08724676
  62         0.17267098
  63         0.16197627
  64        -0.00159203
  65         0.11518632
  66         0.00000000
  67        -0.02263126
  68         0.05284402
  69         0.00000000
  70         0.01199863
  71        -0.00143771
  72        -0.00616620
  73        -0.00080419
  74         0.00000000
  75         0.00000000
  76         0.08724919
  77        -0.17267565
  78        -0.16198117
  79        -0.00451223
  80         0.11511198
  81         0.00000000
  82         0.01980059
  83         0.05397088
  84         0.00000000
  85        -0.01188756
  86         0.00132622
  87         0.00616637
  88        -0.00162033
  89         0.00000000
  90         0.00000000
  91         0.09846508
  92         0.03100070
  93        -0.09846737
  94        -0.03100218
  95        -0.09846459
  96        -0.03100070
  97         0.09846454
  98         0.03100099
Sym=    11a' 
Ene=    -0.7371
Spin= Alpha
Occup=    2.00000
   1        -0.03883176
   2         0.07439599
   3         0.08214056
   4         0.19315415
   5         0.05518634
   6         0.00000000
   7         0.07531069
   8         0.03680552
   9         0.00000000
  10         0.00482660
  11         0.00422545
  12        -0.00288360
  13         0.00705669
  14         0.00000000
  15         0.00000000
  16        -0.03883146
  17         0.07439520
  18         0.08214002
  19         0.19580119
  20        -0.04487760
  21         0.00000000
  22         0.07715357