[Molden Format]
[N_Atoms]
                   10
[Atoms] (AU)
C1          1      6         -10.45702628      2.37755892     -2.04557184
C2          2      6          -8.81487317      0.84882718     -1.64049015
H3          3      1         -11.91366497      3.71278271     -2.35956873
C4          4      6          -6.88748481     -0.99938166     -1.05766081
C5          5      6          -4.62364960     -0.36226050     -0.13645712
H6          6      1          -7.34886144     -2.98247915     -1.30200240
C7          7      6          -3.86405529      2.23136971      0.26692382
H8          8      1          -3.29167614     -1.85223396      0.36936587
C9          9      6          -3.37346349      4.36137451      0.53154216
H10        10      1          -2.95492695      6.17857295      0.75728885
[Charge] (Mulliken)
 -0.47098937173280930     
   9.3296325291294835E-002
  0.30789794149954253     
 -0.17834658857438868     
 -0.13181433798397890     
  0.21901139706450934     
  0.19640749371336863     
  0.22139851717422387     
 -0.51757225534889884     
  0.26071087889615852     
[GTO] (AU)
   1
   s   6
  3.047524880E+03  1.834737132E-03
  4.573695180E+02  1.403732281E-02
  1.039486850E+02  6.884262227E-02
  2.921015530E+01  2.321844432E-01
  9.286662960E+00  4.679413484E-01
  3.163926960E+00  3.623119853E-01
   s   3
  7.868272350E+00 -1.193324198E-01
  1.881288540E+00 -1.608541517E-01
  5.442492580E-01  1.143456438E+00
   s   1
  1.687144782E-01  1.000000000E+00
   p   3
  7.868272350E+00  6.899906659E-02
  1.881288540E+00  3.164239610E-01
  5.442492580E-01  7.443082909E-01
   p   1
  1.687144782E-01  1.000000000E+00
   d   1
  8.000000000E-01  1.000000000E+00
 
   2
   s   6
  3.047524880E+03  1.834737132E-03
  4.573695180E+02  1.403732281E-02
  1.039486850E+02  6.884262227E-02
  2.921015530E+01  2.321844432E-01
  9.286662960E+00  4.679413484E-01
  3.163926960E+00  3.623119853E-01
   s   3
  7.868272350E+00 -1.193324198E-01
  1.881288540E+00 -1.608541517E-01
  5.442492580E-01  1.143456438E+00
   s   1
  1.687144782E-01  1.000000000E+00
   p   3
  7.868272350E+00  6.899906659E-02
  1.881288540E+00  3.164239610E-01
  5.442492580E-01  7.443082909E-01
   p   1
  1.687144782E-01  1.000000000E+00
   d   1
  8.000000000E-01  1.000000000E+00
 
   3
   s   3
  1.873113696E+01  3.349460434E-02
  2.825394365E+00  2.347269535E-01
  6.401216923E-01  8.137573261E-01
   s   1
  1.612777588E-01  1.000000000E+00
 
   4
   s   6
  3.047524880E+03  1.834737132E-03
  4.573695180E+02  1.403732281E-02
  1.039486850E+02  6.884262227E-02
  2.921015530E+01  2.321844432E-01
  9.286662960E+00  4.679413484E-01
  3.163926960E+00  3.623119853E-01
   s   3
  7.868272350E+00 -1.193324198E-01
  1.881288540E+00 -1.608541517E-01
  5.442492580E-01  1.143456438E+00
   s   1
  1.687144782E-01  1.000000000E+00
   p   3
  7.868272350E+00  6.899906659E-02
  1.881288540E+00  3.164239610E-01
  5.442492580E-01  7.443082909E-01
   p   1
  1.687144782E-01  1.000000000E+00
   d   1
  8.000000000E-01  1.000000000E+00
 
   5
   s   6
  3.047524880E+03  1.834737132E-03
  4.573695180E+02  1.403732281E-02
  1.039486850E+02  6.884262227E-02
  2.921015530E+01  2.321844432E-01
  9.286662960E+00  4.679413484E-01
  3.163926960E+00  3.623119853E-01
   s   3
  7.868272350E+00 -1.193324198E-01
  1.881288540E+00 -1.608541517E-01
  5.442492580E-01  1.143456438E+00
   s   1
  1.687144782E-01  1.000000000E+00
   p   3
  7.868272350E+00  6.899906659E-02
  1.881288540E+00  3.164239610E-01
  5.442492580E-01  7.443082909E-01
   p   1
  1.687144782E-01  1.000000000E+00
   d   1
  8.000000000E-01  1.000000000E+00
 
   6
   s   3
  1.873113696E+01  3.349460434E-02
  2.825394365E+00  2.347269535E-01
  6.401216923E-01  8.137573261E-01
   s   1
  1.612777588E-01  1.000000000E+00
 
   7
   s   6
  3.047524880E+03  1.834737132E-03
  4.573695180E+02  1.403732281E-02
  1.039486850E+02  6.884262227E-02
  2.921015530E+01  2.321844432E-01
  9.286662960E+00  4.679413484E-01
  3.163926960E+00  3.623119853E-01
   s   3
  7.868272350E+00 -1.193324198E-01
  1.881288540E+00 -1.608541517E-01
  5.442492580E-01  1.143456438E+00
   s   1
  1.687144782E-01  1.000000000E+00
   p   3
  7.868272350E+00  6.899906659E-02
  1.881288540E+00  3.164239610E-01
  5.442492580E-01  7.443082909E-01
   p   1
  1.687144782E-01  1.000000000E+00
   d   1
  8.000000000E-01  1.000000000E+00
 
   8
   s   3
  1.873113696E+01  3.349460434E-02
  2.825394365E+00  2.347269535E-01
  6.401216923E-01  8.137573261E-01
   s   1
  1.612777588E-01  1.000000000E+00
 
   9
   s   6
  3.047524880E+03  1.834737132E-03
  4.573695180E+02  1.403732281E-02
  1.039486850E+02  6.884262227E-02
  2.921015530E+01  2.321844432E-01
  9.286662960E+00  4.679413484E-01
  3.163926960E+00  3.623119853E-01
   s   3
  7.868272350E+00 -1.193324198E-01
  1.881288540E+00 -1.608541517E-01
  5.442492580E-01  1.143456438E+00
   s   1
  1.687144782E-01  1.000000000E+00
   p   3
  7.868272350E+00  6.899906659E-02
  1.881288540E+00  3.164239610E-01
  5.442492580E-01  7.443082909E-01
   p   1
  1.687144782E-01  1.000000000E+00
   d   1
  8.000000000E-01  1.000000000E+00
 
  10
   s   3
  1.873113696E+01  3.349460434E-02
  2.825394365E+00  2.347269535E-01
  6.401216923E-01  8.137573261E-01
   s   1
  1.612777588E-01  1.000000000E+00
 
[MO]
Sym=     1a  
Ene=   -11.2610
Spin= Alpha
Occup=    1.00000
   1         0.00308468
   2         0.00035422
   3        -0.00152258
   4         0.00015583
   5        -0.00012481
   6         0.00002949
   7        -0.00123521
   8         0.00101375
   9        -0.00032010
  10         0.00009746
  11         0.00007495
  12        -0.00001372
  13        -0.00010630
  14         0.00002419
  15        -0.00001618
  16         0.04161250
  17         0.00115966
  18         0.00596063
  19        -0.00006277
  20         0.00009230
  21        -0.00001616
  22         0.00085945
  23        -0.00043813
  24         0.00035087
  25        -0.00057418
  26        -0.00070966
  27        -0.00027485
  28         0.00031566
  29        -0.00011689
  30         0.00007720
  31        -0.00013163
  32        -0.00056020
  33         0.97264692
  34         0.02703630
  35        -0.01239157
  36        -0.00018149
  37         0.00050976
  38        -0.00001271
  39         0.00021435
  40        -0.00216020
  41        -0.00013680
  42        -0.00159611
  43        -0.00187951
  44        -0.00220270
  45        -0.00000413
  46         0.00030502
  47         0.00002027
  48         0.20795287
  49         0.00540813
  50         0.00361770
  51         0.00016448
  52         0.00010811
  53         0.00007767
  54        -0.00159205
  55         0.00117540
  56        -0.00053882
  57        -0.00063419
  58        -0.00068381
  59        -0.00065538
  60        -0.00000652
  61         0.00000060
  62        -0.00000913
  63        -0.00015732
  64         0.00136388
  65         0.00217946
  66        -0.00008189
  67         0.00196081
  68         0.00000852
  69         0.00004014
  70         0.00001038
  71         0.00075693
  72         0.00245358
  73         0.00035214
  74        -0.00001211
  75        -0.00008899
  76        -0.00006869
  77         0.00002838
  78         0.00003263
  79         0.00000901
  80        -0.00001349
  81         0.00069461
  82         0.00005546
  83         0.00007187
  84        -0.00286092
  85        -0.00001290
  86         0.00001215
  87        -0.00000722
  88         0.00037081
  89         0.00173690
  90         0.00021431
  91         0.00002085
  92        -0.00000234
  93         0.00001989
  94         0.00001638
  95         0.00000036
  96         0.00000336
  97        -0.00005241
  98        -0.00053216
Sym=     1a  
Ene=   -11.2610
Spin= Beta
Occup=    1.00000
   1         0.00308468
   2         0.00035422
   3        -0.00152258
   4         0.00015583
   5        -0.00012481
   6         0.00002949
   7        -0.00123521
   8         0.00101375
   9        -0.00032010
  10         0.00009746
  11         0.00007495
  12        -0.00001372
  13        -0.00010630
  14         0.00002419
  15        -0.00001618
  16         0.04161250
  17         0.00115966
  18         0.00596063
  19        -0.00006277
  20         0.00009230
  21        -0.00001616
  22         0.00085945
  23        -0.00043813
  24         0.00035087
  25        -0.00057418
  26        -0.00070966
  27        -0.00027485
  28         0.00031566
  29        -0.00011689
  30         0.00007720
  31        -0.00013163
  32        -0.00056020
  33         0.97264692
  34         0.02703630
  35        -0.01239157
  36        -0.00018149
  37         0.00050976
  38        -0.00001271
  39         0.00021435
  40        -0.00216020
  41        -0.00013680
  42        -0.00159611
  43        -0.00187951
  44        -0.00220270
  45        -0.00000413
  46         0.00030502
  47         0.00002027
  48         0.20795287
  49         0.00540813
  50         0.00361770
  51         0.00016448
  52         0.00010811
  53         0.00007767
  54        -0.00159205
  55         0.00117540
  56        -0.00053882
  57        -0.00063419
  58        -0.00068381
  59        -0.00065538
  60        -0.00000652
  61         0.00000060
  62        -0.00000913
  63        -0.00015732
  64         0.00136388
  65         0.00217946
  66        -0.00008189
  67         0.00196081
  68         0.00000852
  69         0.00004014
  70         0.00001038
  71         0.00075693
  72         0.00245358
  73         0.00035214
  74        -0.00001211
  75        -0.00008899
  76        -0.00006869
  77         0.00002838
  78         0.00003263
  79         0.00000901
  80        -0.00001349
  81         0.00069461
  82         0.00005546
  83         0.00007187
  84        -0.00286092
  85        -0.00001290
  86         0.00001215
  87        -0.00000722
  88         0.00037081
  89         0.00173690
  90         0.00021431
  91         0.00002085
  92        -0.00000234
  93         0.00001989
  94         0.00001638
  95         0.00000036
  96         0.00000336
  97        -0.00005241
  98        -0.00053216
Sym=     2a  
Ene=   -11.2570
Spin= Alpha
Occup=    1.00000
   1         0.00148007
   2         0.00010449
   3         0.00154026
   4         0.00007243
   5        -0.00007458
   6         0.00001105
   7         0.00045052
   8        -0.00050684
   9         0.00010094
  10         0.00002123
  11         0.00004788
  12        -0.00002446
  13        -0.00006100
  14         0.00001034
  15        -0.00000893
  16         0.01526556
  17         0.00056982
  18         0.00123703
  19         0.00000913
  20        -0.00000029
  21         0.00000933
  22         0.00202181
  23        -0.00146150
  24         0.00057323
  25        -0.00025716
  26        -0.00022305
  27        -0.00005540
  28         0.00011723
  29        -0.00008893
  30         0.00002309
  31        -0.00001568
  32         0.00013968
  33         0.20817100
  34         0.00620212
  35        -0.00933608
  36         0.00015764
  37         0.00021984
  38         0.00007352
  39        -0.00106952
  40        -0.00285434
  41        -0.00058623
  42         0.00002039
  43        -0.00011685
  44        -0.00027753
  45        -0.00004089
  46         0.00015330
  47        -0.00000865
  48        -0.97358880
  49        -0.02731124
  50         0.01480279
  51         0.00020505
  52        -0.00053464
  53         0.00005200
  54        -0.00190943
  55         0.00232164
  56        -0.00064378
  57         0.00158207
  58         0.00162825
  59         0.00215738
  60        -0.00022238
  61        -0.00033083
  62        -0.00011312
  63        -0.00005300
  64        -0.00014938
  65        -0.01221120
  66        -0.00034383
  67        -0.00730020
  68        -0.00000257
  69        -0.00001454
  70        -0.00000078
  71         0.00075113
  72         0.00061492
  73         0.00031891
  74         0.00031316
  75         0.00096418
  76         0.00018106
  77         0.00014648
  78         0.00008249
  79         0.00009590
  80         0.00016582
  81        -0.00118012
  82        -0.00042351
  83        -0.00040675
  84         0.00213397
  85         0.00005282
  86         0.00026426
  87         0.00002785
  88        -0.00064023
  89        -0.00201145
  90        -0.00031498
  91         0.00001071
  92        -0.00021442
  93         0.00002407
  94        -0.00003578
  95        -0.00000887
  96        -0.00002211
  97         0.00015326
  98         0.00077178
Sym=     2a  
Ene=   -11.2570
Spin= Beta
Occup=    1.00000
   1         0.00148007
   2         0.00010449
   3         0.00154026
   4         0.00007243
   5        -0.00007458
   6         0.00001105
   7         0.00045052
   8        -0.00050684
   9         0.00010094
  10         0.00002123
  11         0.00004788
  12        -0.00002446
  13        -0.00006100
  14         0.00001034
  15        -0.00000893
  16         0.01526556
  17         0.00056982
  18         0.00123703
  19         0.00000913
  20        -0.00000029
  21         0.00000933
  22         0.00202181
  23        -0.00146150
  24         0.00057323
  25        -0.00025716
  26        -0.00022305
  27        -0.00005540
  28         0.00011723
  29        -0.00008893
  30         0.00002309
  31        -0.00001568
  32         0.00013968
  33         0.20817100
  34         0.00620212
  35        -0.00933608
  36         0.00015764
  37         0.00021984
  38         0.00007352
  39        -0.00106952
  40        -0.00285434
  41        -0.00058623
  42         0.00002039
  43        -0.00011685
  44        -0.00027753
  45        -0.00004089
  46         0.00015330
  47        -0.00000865
  48        -0.97358880
  49        -0.02731124
  50         0.01480279
  51         0.00020505
  52        -0.00053464
  53         0.00005200
  54        -0.00190943
  55         0.00232164
  56        -0.00064378
  57         0.00158207
  58         0.00162825
  59         0.00215738
  60        -0.00022238
  61        -0.00033083
  62        -0.00011312
  63        -0.00005300
  64        -0.00014938
  65        -0.01221120
  66        -0.00034383
  67        -0.00730020
  68        -0.00000257
  69        -0.00001454
  70        -0.00000078
  71         0.00075113
  72         0.00061492
  73         0.00031891
  74         0.00031316
  75         0.00096418
  76         0.00018106
  77         0.00014648
  78         0.00008249
  79         0.00009590
  80         0.00016582
  81        -0.00118012
  82        -0.00042351
  83        -0.00040675
  84         0.00213397
  85         0.00005282
  86         0.00026426
  87         0.00002785
  88        -0.00064023
  89        -0.00201145
  90        -0.00031498
  91         0.00001071
  92        -0.00021442
  93         0.00002407
  94        -0.00003578
  95        -0.00000887
  96        -0.00002211
  97         0.00015326
  98         0.00077178
Sym=     3a  
Ene=   -11.2510
Spin= Alpha
Occup=    1.00000
   1         0.16941457
   2         0.00351926
   3         0.00583701
   4        -0.00058443
   5         0.00053800
   6        -0.00012972
   7         0.00264789
   8        -0.00240920
   9         0.00066859
  10        -0.00066058
  11        -0.00068488
  12        -0.00077617
  13        -0.00011403
  14         0.00005625
  15        -0.00004106
  16         0.97974362
  17         0.02692897
  18        -0.01158886
  19        -0.00043050
  20         0.00044475
  21        -0.00008056
  22         0.00206607
  23        -0.00203947
  24         0.00043948
  25        -0.00143355
  26        -0.00161777
  27        -0.00276345
  28        -0.00152559
  29         0.00045033
  30        -0.00041232
  31        -0.00014315
  32         0.00095990
  33        -0.04425764
  34        -0.00102205
  35         0.00125733
  36         0.00045342
  37        -0.00047398
  38         0.00013526
  39        -0.00063950
  40        -0.00011262
  41        -0.00016723
  42        -0.00074288
  43        -0.00056506
  44        -0.00014263
  45         0.00051243
  46        -0.00027147
  47         0.00016408
  48         0.00628201
  49        -0.00000082
  50         0.00025847
  51        -0.00005516
  52        -0.00009844
  53        -0.00002294
  54        -0.00027274
  55         0.00021714
  56        -0.00012161
  57         0.00015825
  58         0.00007985
  59        -0.00002895
  60         0.00009537
  61         0.00010778
  62         0.00004967
  63        -0.00011050
  64        -0.00026260
  65        -0.00022213
  66        -0.00017311
  67         0.00177114
  68         0.00013958
  69        -0.00001280
  70         0.00004777
  71        -0.00024238
  72         0.00079749
  73        -0.00004051
  74        -0.00012135
  75        -0.00015381
  76        -0.00017055
  77        -0.00002792
  78         0.00002227
  79        -0.00000914
  80         0.00001470
  81         0.00024316
  82        -0.00002568
  83         0.00005770
  84        -0.00122288
  85         0.00002688
  86        -0.00003447
  87         0.00000711
  88         0.00028914
  89         0.00076009
  90         0.00012620
  91        -0.00001920
  92         0.00005163
  93        -0.00001071
  94        -0.00001506
  95        -0.00000436
  96        -0.00000121
  97        -0.00003705
  98        -0.00024129
Sym=     3a  
Ene=   -11.2510
Spin= Beta
Occup=    1.00000
   1         0.16941457
   2         0.00351926
   3         0.00583701
   4        -0.00058443
   5         0.00053800
   6        -0.00012972
   7         0.00264789
   8        -0.00240920
   9         0.00066859
  10        -0.00066058
  11        -0.00068488
  12        -0.00077617
  13        -0.00011403
  14         0.00005625
  15        -0.00004106
  16         0.97974362
  17         0.02692897
  18        -0.01158886
  19        -0.00043050
  20         0.00044475
  21        -0.00008056
  22         0.00206607
  23        -0.00203947
  24         0.00043948
  25        -0.00143355
  26        -0.00161777
  27        -0.00276345
  28        -0.00152559
  29         0.00045033
  30        -0.00041232
  31        -0.00014315
  32         0.00095990
  33        -0.04425764
  34        -0.00102205
  35         0.00125733
  36         0.00045342
  37        -0.00047398
  38         0.00013526
  39        -0.00063950
  40        -0.00011262
  41        -0.00016723
  42        -0.00074288
  43        -0.00056506
  44        -0.00014263
  45         0.00051243
  46        -0.00027147
  47         0.00016408
  48         0.00628201
  49        -0.00000082
  50         0.00025847
  51        -0.00005516
  52        -0.00009844
  53        -0.00002294
  54        -0.00027274
  55         0.00021714
  56        -0.00012161
  57         0.00015825
  58         0.00007985
  59        -0.00002895
  60         0.00009537
  61         0.00010778
  62         0.00004967
  63        -0.00011050
  64        -0.00026260
  65        -0.00022213
  66        -0.00017311
  67         0.00177114
  68         0.00013958
  69        -0.00001280
  70         0.00004777
  71        -0.00024238
  72         0.00079749
  73        -0.00004051
  74        -0.00012135
  75        -0.00015381
  76        -0.00017055
  77        -0.00002792
  78         0.00002227
  79        -0.00000914
  80         0.00001470
  81         0.00024316
  82        -0.00002568
  83         0.00005770
  84        -0.00122288
  85         0.00002688
  86        -0.00003447
  87         0.00000711
  88         0.00028914
  89         0.00076009
  90         0.00012620
  91        -0.00001920
  92         0.00005163
  93        -0.00001071
  94        -0.00001506
  95        -0.00000436
  96        -0.00000121
  97        -0.00003705
  98        -0.00024129
Sym=     4a  
Ene=   -11.2410
Spin= Alpha
Occup=    1.00000
   1         0.98090252
   2         0.02757727
   3        -0.01269934
   4         0.00069496
   5        -0.00065967
   6         0.00016612
   7        -0.00293865
   8         0.00272174
   9        -0.00073082
  10        -0.00183496
  11        -0.00198882
  12        -0.00288763
  13        -0.00117595
  14         0.00029901
  15        -0.00026991
  16        -0.17083932
  17        -0.00585143
  18         0.01026180
  19         0.00058163
  20        -0.00055211
  21         0.00014647
  22        -0.00249803
  23         0.00236419
  24        -0.00058688
  25         0.00007627
  26         0.00008843
  27         0.00017459
  28         0.00013637
  29        -0.00003911
  30         0.00004495
  31        -0.00090076
  32         0.00066745
  33         0.00435584
  34         0.00023387
  35        -0.00042654
  36        -0.00001471
  37         0.00001867
  38        -0.00000781
  39         0.00049516
  40        -0.00049413
  41         0.00012802
  42         0.00006326
  43         0.00003824
  44         0.00004815
  45        -0.00000995
  46         0.00000900
  47        -0.00000689
  48        -0.00027442
  49        -0.00001397
  50         0.00051443
  51        -0.00002348
  52         0.00002568
  53        -0.00000661
  54         0.00015688
  55         0.00053729
  56         0.00009157
  57        -0.00001268
  58         0.00000702
  59         0.00000999
  60        -0.00001174
  61        -0.00001286
  62        -0.00000793
  63         0.00003425
  64        -0.00008706
  65         0.00005944
  66         0.00005232
  67        -0.00036072
  68        -0.00002395
  69        -0.00001901
  70        -0.00000935
  71         0.00028424
  72         0.00067152
  73         0.00012953
  74         0.00002495
  75         0.00002194
  76         0.00004030
  77         0.00000653
  78        -0.00000656
  79         0.00000077
  80         0.00000505
  81         0.00001119
  82        -0.00002177
  83        -0.00001243
  84        -0.00042744
  85         0.00001130
  86         0.00001183
  87         0.00000390
  88        -0.00002946
  89         0.00016518
  90        -0.00000167
  91        -0.00000496
  92        -0.00001397
  93        -0.00000853
  94         0.00001056
  95         0.00000204
  96         0.00000321
  97         0.00000121
  98        -0.00002061
Sym=     4a  
Ene=   -11.2410
Spin= Beta
Occup=    1.00000
   1         0.98090252
   2         0.02757727
   3        -0.01269934
   4         0.00069496
   5        -0.00065967
   6         0.00016612
   7        -0.00293865
   8         0.00272174
   9        -0.00073082
  10        -0.00183496
  11        -0.00198882
  12        -0.00288763
  13        -0.00117595
  14         0.00029901
  15        -0.00026991
  16        -0.17083932
  17        -0.00585143
  18         0.01026180
  19         0.00058163
  20        -0.00055211
  21         0.00014647
  22        -0.00249803
  23         0.00236419
  24        -0.00058688
  25         0.00007627
  26         0.00008843
  27         0.00017459
  28         0.00013637
  29        -0.00003911
  30         0.00004495
  31        -0.00090076
  32         0.00066745
  33         0.00435584
  34         0.00023387
  35        -0.00042654
  36        -0.00001471
  37         0.00001867
  38        -0.00000781
  39         0.00049516
  40        -0.00049413
  41         0.00012802
  42         0.00006326
  43         0.00003824
  44         0.00004815
  45        -0.00000995
  46         0.00000900
  47        -0.00000689
  48        -0.00027442
  49        -0.00001397
  50         0.00051443
  51        -0.00002348
  52         0.00002568
  53        -0.00000661
  54         0.00015688
  55         0.00053729
  56         0.00009157
  57        -0.00001268
  58         0.00000702
  59         0.00000999
  60        -0.00001174
  61        -0.00001286
  62        -0.00000793
  63         0.00003425
  64        -0.00008706
  65         0.00005944
  66         0.00005232
  67        -0.00036072
  68        -0.00002395
  69        -0.00001901
  70        -0.00000935
  71         0.00028424
  72         0.00067152
  73         0.00012953
  74         0.00002495
  75         0.00002194
  76         0.00004030
  77         0.00000653
  78        -0.00000656
  79         0.00000077
  80         0.00000505
  81         0.00001119
  82        -0.00002177
  83        -0.00001243
  84        -0.00042744
  85         0.00001130
  86         0.00001183
  87         0.00000390
  88        -0.00002946
  89         0.00016518
  90        -0.00000167
  91        -0.00000496
  92        -0.00001397
  93        -0.00000853
  94         0.00001056
  95         0.00000204
  96         0.00000321
  97         0.00000121
  98        -0.00002061
Sym=     5a  
Ene=   -11.2250
Spin= Alpha
Occup=    1.00000
   1        -0.00000808
   2        -0.00004437
   3         0.00018370
   4        -0.00002005
   5         0.00003885
   6        -0.00000231
   7         0.00028253
   8        -0.00005706
   9         0.00009520
  10         0.00000332
  11        -0.00005252
  12        -0.00000089
  13         0.00002914
  14         0.00000646
  15         0.00000333
  16        -0.00020482
  17         0.00016750
  18        -0.00137860
  19         0.00013640
  20         0.00006571
  21         0.00005496
  22        -0.00060430
  23        -0.00005938
  24        -0.00023473
  25         0.00015073
  26         0.00013108
  27         0.00017930
  28        -0.00003029
  29        -0.00001940
  30        -0.00001489
  31         0.00002519
  32         0.00009229
  33        -0.00040802
  34         0.00015358
  35         0.00042367
  36        -0.00008130
  37         0.00008794
  38        -0.00002957
  39        -0.00047355
  40         0.00004063
  41        -0.00016320
  42        -0.00021452
  43        -0.00002560
  44         0.00001984
  45         0.00000313
  46        -0.00012506
  47        -0.00000181
  48         0.01278499
  49         0.00017267
  50        -0.00247199
  51         0.00016264
  52         0.00065492
  53         0.00009006
  54        -0.00056463
  55        -0.00112033
  56        -0.00026540
  57         0.00040207
  58         0.00116597
  59         0.00022553
  60         0.00040935
  61         0.00011933
  62         0.00021168
  63        -0.00002076
  64        -0.00021832
  65        -0.98390579
  66        -0.02685065
  67         0.01173921
  68         0.00012856
  69         0.00007534
  70         0.00005778
  71        -0.00017163
  72         0.00080787
  73        -0.00005040
  74         0.00268163
  75         0.00033282
  76         0.00279190
  77        -0.00076648
  78        -0.00010041
  79        -0.00040638
  80         0.00011884
  81         0.00004151
  82        -0.14906133
  83        -0.00281457
  84        -0.00452118
  85        -0.00010266
  86        -0.00056468
  87        -0.00005771
  88         0.00084193
  89         0.00304579
  90         0.00043756
  91         0.00066131
  92        -0.00005403
  93         0.00071690
  94        -0.00026538
  95        -0.00004374
  96        -0.00013838
  97         0.00034279
  98        -0.00106480
Sym=     5a  
Ene=   -11.2250
Spin= Beta
Occup=    1.00000
   1        -0.00000808
   2        -0.00004437
   3         0.00018370
   4        -0.00002005
   5         0.00003885
   6        -0.00000231
   7         0.00028253
   8        -0.00005706
   9         0.00009520
  10         0.00000332
  11        -0.00005252
  12        -0.00000089
  13         0.00002914
  14         0.00000646
  15         0.00000333
  16        -0.00020482
  17         0.00016750
  18        -0.00137860
  19         0.00013640
  20         0.00006571
  21         0.00005496
  22        -0.00060430
  23        -0.00005938
  24        -0.00023473
  25         0.00015073
  26         0.00013108
  27         0.00017930
  28        -0.00003029
  29        -0.00001940
  30        -0.00001489
  31         0.00002519
  32         0.00009229
  33        -0.00040802
  34         0.00015358
  35         0.00042367
  36        -0.00008130
  37         0.00008794
  38        -0.00002957
  39        -0.00047355
  40         0.00004063
  41        -0.00016320
  42        -0.00021452
  43        -0.00002560
  44         0.00001984
  45         0.00000313
  46        -0.00012506
  47        -0.00000181
  48         0.01278499
  49         0.00017267
  50        -0.00247199
  51         0.00016264
  52         0.00065492
  53         0.00009006
  54        -0.00056463
  55        -0.00112033
  56        -0.00026540
  57         0.00040207
  58         0.00116597
  59         0.00022553
  60         0.00040935
  61         0.00011933
  62         0.00021168
  63        -0.00002076
  64        -0.00021832
  65        -0.98390579
  66        -0.02685065
  67         0.01173921
  68         0.00012856
  69         0.00007534
  70         0.00005778
  71        -0.00017163
  72         0.00080787
  73        -0.00005040
  74         0.00268163
  75         0.00033282
  76         0.00279190
  77        -0.00076648
  78        -0.00010041
  79        -0.00040638
  80         0.00011884
  81         0.00004151
  82        -0.14906133
  83        -0.00281457
  84        -0.00452118
  85        -0.00010266
  86        -0.00056468
  87        -0.00005771
  88         0.00084193
  89         0.00304579
  90         0.00043756
  91         0.00066131
  92        -0.00005403
  93         0.00071690
  94        -0.00026538
  95        -0.00004374
  96        -0.00013838
  97         0.00034279
  98        -0.00106480
Sym=     6a  
Ene=   -11.2090
Spin= Alpha
Occup=    1.00000
   1        -0.00002244
   2         0.00000330
   3         0.00054160
   4         0.00001801
   5        -0.00000191
   6         0.00000588
   7         0.00015688
   8        -0.00019887
   9         0.00002726
  10         0.00000307
  11         0.00001493
  12         0.00000897
  13        -0.00000033
  14        -0.00000300
  15         0.00000083
  16        -0.00000509
  17        -0.00003985
  18         0.00014002
  19        -0.00002540
  20         0.00001556
  21        -0.00000829
  22         0.00058837