[Molden Format]
[N_Atoms]
                   10
[Atoms] (AU)
C1          1      6         -10.45702628      2.37755892     -2.04557184
C2          2      6          -8.81487317      0.84882718     -1.64049015
H3          3      1         -11.91366497      3.71278271     -2.35956873
C4          4      6          -6.88748481     -0.99938166     -1.05766081
C5          5      6          -4.62364960     -0.36226050     -0.13645712
H6          6      1          -7.34886144     -2.98247915     -1.30200240
C7          7      6          -3.86405529      2.23136971      0.26692382
H8          8      1          -3.29167614     -1.85223396      0.36936587
C9          9      6          -3.37346349      4.36137451      0.53154216
H10        10      1          -2.95492695      6.17857295      0.75728885
[Charge] (Mulliken)
   0.0000000000000000     
   0.0000000000000000     
   0.0000000000000000     
   0.0000000000000000     
   0.0000000000000000     
   0.0000000000000000     
   0.0000000000000000     
   0.0000000000000000     
   0.0000000000000000     
   0.0000000000000000     
[GTO] (AU)
   1
   s   6
  3.047524880E+03  1.834737132E-03
  4.573695180E+02  1.403732281E-02
  1.039486850E+02  6.884262227E-02
  2.921015530E+01  2.321844432E-01
  9.286662960E+00  4.679413484E-01
  3.163926960E+00  3.623119853E-01
   s   3
  7.868272350E+00 -1.193324198E-01
  1.881288540E+00 -1.608541517E-01
  5.442492580E-01  1.143456438E+00
   s   1
  1.687144782E-01  1.000000000E+00
   p   3
  7.868272350E+00  6.899906659E-02
  1.881288540E+00  3.164239610E-01
  5.442492580E-01  7.443082909E-01
   p   1
  1.687144782E-01  1.000000000E+00
   d   1
  8.000000000E-01  1.000000000E+00
 
   2
   s   6
  3.047524880E+03  1.834737132E-03
  4.573695180E+02  1.403732281E-02
  1.039486850E+02  6.884262227E-02
  2.921015530E+01  2.321844432E-01
  9.286662960E+00  4.679413484E-01
  3.163926960E+00  3.623119853E-01
   s   3
  7.868272350E+00 -1.193324198E-01
  1.881288540E+00 -1.608541517E-01
  5.442492580E-01  1.143456438E+00
   s   1
  1.687144782E-01  1.000000000E+00
   p   3
  7.868272350E+00  6.899906659E-02
  1.881288540E+00  3.164239610E-01
  5.442492580E-01  7.443082909E-01
   p   1
  1.687144782E-01  1.000000000E+00
   d   1
  8.000000000E-01  1.000000000E+00
 
   3
   s   3
  1.873113696E+01  3.349460434E-02
  2.825394365E+00  2.347269535E-01
  6.401216923E-01  8.137573261E-01
   s   1
  1.612777588E-01  1.000000000E+00
 
   4
   s   6
  3.047524880E+03  1.834737132E-03
  4.573695180E+02  1.403732281E-02
  1.039486850E+02  6.884262227E-02
  2.921015530E+01  2.321844432E-01
  9.286662960E+00  4.679413484E-01
  3.163926960E+00  3.623119853E-01
   s   3
  7.868272350E+00 -1.193324198E-01
  1.881288540E+00 -1.608541517E-01
  5.442492580E-01  1.143456438E+00
   s   1
  1.687144782E-01  1.000000000E+00
   p   3
  7.868272350E+00  6.899906659E-02
  1.881288540E+00  3.164239610E-01
  5.442492580E-01  7.443082909E-01
   p   1
  1.687144782E-01  1.000000000E+00
   d   1
  8.000000000E-01  1.000000000E+00
 
   5
   s   6
  3.047524880E+03  1.834737132E-03
  4.573695180E+02  1.403732281E-02
  1.039486850E+02  6.884262227E-02
  2.921015530E+01  2.321844432E-01
  9.286662960E+00  4.679413484E-01
  3.163926960E+00  3.623119853E-01
   s   3
  7.868272350E+00 -1.193324198E-01
  1.881288540E+00 -1.608541517E-01
  5.442492580E-01  1.143456438E+00
   s   1
  1.687144782E-01  1.000000000E+00
   p   3
  7.868272350E+00  6.899906659E-02
  1.881288540E+00  3.164239610E-01
  5.442492580E-01  7.443082909E-01
   p   1
  1.687144782E-01  1.000000000E+00
   d   1
  8.000000000E-01  1.000000000E+00
 
   6
   s   3
  1.873113696E+01  3.349460434E-02
  2.825394365E+00  2.347269535E-01
  6.401216923E-01  8.137573261E-01
   s   1
  1.612777588E-01  1.000000000E+00
 
   7
   s   6
  3.047524880E+03  1.834737132E-03
  4.573695180E+02  1.403732281E-02
  1.039486850E+02  6.884262227E-02
  2.921015530E+01  2.321844432E-01
  9.286662960E+00  4.679413484E-01
  3.163926960E+00  3.623119853E-01
   s   3
  7.868272350E+00 -1.193324198E-01
  1.881288540E+00 -1.608541517E-01
  5.442492580E-01  1.143456438E+00
   s   1
  1.687144782E-01  1.000000000E+00
   p   3
  7.868272350E+00  6.899906659E-02
  1.881288540E+00  3.164239610E-01
  5.442492580E-01  7.443082909E-01
   p   1
  1.687144782E-01  1.000000000E+00
   d   1
  8.000000000E-01  1.000000000E+00
 
   8
   s   3
  1.873113696E+01  3.349460434E-02
  2.825394365E+00  2.347269535E-01
  6.401216923E-01  8.137573261E-01
   s   1
  1.612777588E-01  1.000000000E+00
 
   9
   s   6
  3.047524880E+03  1.834737132E-03
  4.573695180E+02  1.403732281E-02
  1.039486850E+02  6.884262227E-02
  2.921015530E+01  2.321844432E-01
  9.286662960E+00  4.679413484E-01
  3.163926960E+00  3.623119853E-01
   s   3
  7.868272350E+00 -1.193324198E-01
  1.881288540E+00 -1.608541517E-01
  5.442492580E-01  1.143456438E+00
   s   1
  1.687144782E-01  1.000000000E+00
   p   3
  7.868272350E+00  6.899906659E-02
  1.881288540E+00  3.164239610E-01
  5.442492580E-01  7.443082909E-01
   p   1
  1.687144782E-01  1.000000000E+00
   d   1
  8.000000000E-01  1.000000000E+00
 
  10
   s   3
  1.873113696E+01  3.349460434E-02
  2.825394365E+00  2.347269535E-01
  6.401216923E-01  8.137573261E-01
   s   1
  1.612777588E-01  1.000000000E+00
 
[MO]
Sym=     1a  
Ene=   -11.3620
Spin= Alpha
Occup=    2.00000
   1         0.01610210
   2         0.00039268
   3         0.00009253
   4         0.00010693
   5        -0.00008898
   6         0.00002801
   7         0.00006678
   8        -0.00005557
   9         0.00001749
  10         0.00000000
  11         0.00000000
  12         0.00000000
  13         0.00000000
  14        -0.00000000
  15         0.00000000
  16         0.03623436
  17         0.00086023
  18         0.00018214
  19         0.00017537
  20        -0.00004429
  21         0.00006419
  22         0.00010952
  23        -0.00002766
  24         0.00004009
  25        -0.00000000
  26        -0.00000000
  27        -0.00000000
  28        -0.00000000
  29        -0.00000000
  30         0.00000000
  31         0.00003802
  32         0.00004245
  33         0.06306434
  34         0.00160685
  35         0.00043910
  36         0.00044717
  37         0.00032913
  38         0.00019356
  39         0.00027926
  40         0.00020554
  41         0.00012088
  42        -0.00000000
  43        -0.00000000
  44        -0.00000000
  45        -0.00000000
  46         0.00000000
  47         0.00000000
  48         0.15055863
  49         0.00398576
  50         0.00121483
  51         0.00029080
  52         0.00153800
  53         0.00017603
  54         0.00018160
  55         0.00096048
  56         0.00010993
  57        -0.00000000
  58         0.00000000
  59        -0.00000000
  60         0.00000000
  61         0.00000000
  62        -0.00000000
  63         0.00017200
  64         0.00019205
  65         0.70392648
  66         0.01504320
  67         0.00168073
  68         0.00043230
  69         0.00204212
  70         0.00023636
  71         0.00026997
  72         0.00127530
  73         0.00014761
  74        -0.00000000
  75         0.00000000
  76        -0.00000000
  77         0.00000000
  78        -0.00000000
  79         0.00000000
  80         0.00046496
  81         0.00051915
  82         0.67886145
  83         0.01442604
  84         0.00153014
  85        -0.00057497
  86        -0.00248236
  87        -0.00030984
  88        -0.00035907
  89        -0.00155023
  90        -0.00019350
  91        -0.00000000
  92        -0.00000000
  93         0.00000000
  94        -0.00000000
  95        -0.00000000
  96        -0.00000000
  97         0.00169575
  98         0.00189340
Sym=     2a  
Ene=   -11.3570
Spin= Alpha
Occup=    2.00000
   1         0.63092394
   2         0.01337605
   3         0.00138724
   4         0.00174175
   5        -0.00162119
   6         0.00043235
   7         0.00108772
   8        -0.00101243
   9         0.00027000
  10        -0.00000000
  11        -0.00000000
  12         0.00000000
  13        -0.00000000
  14         0.00000000
  15         0.00000000
  16         0.70754790
  17         0.01498658
  18         0.00154018
  19        -0.00109831
  20         0.00103578
  21        -0.00024291
  22        -0.00068589
  23         0.00064684
  24        -0.00015170
  25        -0.00000000
  26        -0.00000000
  27        -0.00000000
  28        -0.00000000
  29        -0.00000000
  30         0.00000000
  31         0.00137921
  32         0.00153996
  33         0.25104115
  34         0.00595706
  35         0.00125874
  36        -0.00084616
  37         0.00119060
  38        -0.00021937
  39        -0.00052843
  40         0.00074353
  41        -0.00013700
  42         0.00000000
  43         0.00000000
  44         0.00000000
  45         0.00000000
  46         0.00000000
  47        -0.00000000
  48         0.13164954
  49         0.00295854
  50         0.00047593
  51        -0.00083031
  52        -0.00017493
  53        -0.00032897
  54        -0.00051853
  55        -0.00010925
  56        -0.00020544
  57        -0.00000000
  58         0.00000000
  59         0.00000000
  60        -0.00000000
  61        -0.00000000
  62         0.00000000
  63         0.00068332
  64         0.00076297
  65        -0.03166822
  66        -0.00051089
  67         0.00010906
  68        -0.00026460
  69        -0.00059673
  70        -0.00012487
  71        -0.00016524
  72        -0.00037265
  73        -0.00007798
  74        -0.00000000
  75        -0.00000000
  76        -0.00000000
  77         0.00000000
  78         0.00000000
  79        -0.00000000
  80         0.00031374
  81         0.00035031
  82        -0.07276996
  83        -0.00141491
  84        -0.00001765
  85         0.00000550
  86         0.00007570
  87         0.00000478
  88         0.00000343
  89         0.00004728
  90         0.00000298
  91        -0.00000000
  92        -0.00000000
  93        -0.00000000
  94        -0.00000000
  95         0.00000000
  96        -0.00000000
  97        -0.00017266
  98        -0.00019278
Sym=     3a  
Ene=   -11.3510
Spin= Alpha
Occup=    2.00000
   1        -0.30277471
   2        -0.00579482
   3         0.00002927
   4        -0.00014964
   5         0.00014579
   6        -0.00003284
   7        -0.00009345
   8         0.00009105
   9        -0.00002051
  10         0.00000000
  11         0.00000000
  12         0.00000000
  13        -0.00000000
  14        -0.00000000
  15        -0.00000000
  16        -0.10059977
  17        -0.00154907
  18         0.00042870
  19         0.00190081
  20        -0.00165884
  21         0.00054668
  22         0.00118705
  23        -0.00103594
  24         0.00034140
  25        -0.00000000
  26         0.00000000
  27         0.00000000
  28         0.00000000
  29        -0.00000000
  30        -0.00000000
  31        -0.00062588
  32        -0.00069883
  33         0.63819744
  34         0.01288922
  35         0.00068953
  36         0.00176612
  37         0.00026335
  38         0.00069949
  39         0.00110294
  40         0.00016446
  41         0.00043683
  42        -0.00000000
  43         0.00000000
  44        -0.00000000
  45        -0.00000000
  46        -0.00000000
  47        -0.00000000
  48         0.66070862
  49         0.01341092
  50         0.00078851
  51        -0.00149790
  52        -0.00045758
  53        -0.00061070
  54        -0.00093543
  55        -0.00028576
  56        -0.00038138
  57        -0.00000000
  58        -0.00000000
  59        -0.00000000
  60         0.00000000
  61         0.00000000
  62        -0.00000000
  63         0.00139208
  64         0.00155433
  65         0.00846371
  66         0.00068814
  67         0.00058498
  68        -0.00069338
  69        -0.00219833
  70        -0.00035705
  71        -0.00043302
  72        -0.00137286
  73        -0.00022297
  74        -0.00000000
  75         0.00000000
  76        -0.00000000
  77         0.00000000
  78        -0.00000000
  79         0.00000000
  80         0.00143934
  81         0.00160709
  82        -0.20292593
  83        -0.00368291
  84         0.00024329
  85        -0.00005034
  86        -0.00016746
  87        -0.00002611
  88        -0.00003144
  89        -0.00010458
  90        -0.00001631
  91         0.00000000
  92        -0.00000000
  93         0.00000000
  94        -0.00000000
  95        -0.00000000
  96        -0.00000000
  97        -0.00046219
  98        -0.00051606
Sym=     4a  
Ene=   -11.3340
Spin= Alpha
Occup=    2.00000
   1        -0.32454412
   2        -0.00546643
   3         0.00086086
   4         0.00056360
   5        -0.00053392
   6         0.00014055
   7         0.00035197
   8        -0.00033343
   9         0.00008777
  10         0.00000000
  11         0.00000000
  12         0.00000000
  13        -0.00000000
  14        -0.00000000
  15        -0.00000000
  16         0.21000892
  17         0.00388212
  18        -0.00017311
  19         0.00148076
  20        -0.00154324
  21         0.00039386
  22         0.00092473
  23        -0.00096375
  24         0.00024597
  25         0.00000000
  26         0.00000000
  27         0.00000000
  28         0.00000000
  29        -0.00000000
  30        -0.00000000
  31        -0.00061605
  32        -0.00068785
  33         0.59522949
  34         0.01018525
  35        -0.00140122
  36        -0.00172550
  37        -0.00017266
  38        -0.00067449
  39        -0.00107757
  40        -0.00010782
  41        -0.00042122
  42         0.00000000
  43         0.00000000
  44         0.00000000
  45         0.00000000
  46        -0.00000000
  47        -0.00000000
  48        -0.59970638
  49        -0.01027299
  50         0.00139936
  51        -0.00156433
  52        -0.00074784
  53        -0.00064776
  54        -0.00097693
  55        -0.00046703
  56        -0.00040452
  57        -0.00000000
  58        -0.00000000
  59        -0.00000000
  60        -0.00000000
  61         0.00000000
  62         0.00000000
  63         0.00102250
  64         0.00114168
  65        -0.20835074
  66        -0.00387987
  67         0.00014012
  68         0.00044412
  69         0.00208863
  70         0.00025236
  71         0.00027735
  72         0.00130435
  73         0.00015760
  74        -0.00000000
  75        -0.00000000
  76        -0.00000000
  77        -0.00000000
  78         0.00000000
  79        -0.00000000
  80        -0.00102025
  81        -0.00113916
  82         0.29063383
  83         0.00480082
  84        -0.00087606
  85         0.00018725
  86         0.00082280
  87         0.00010183
  88         0.00011694
  89         0.00051384
  90         0.00006359
  91         0.00000000
  92         0.00000000
  93         0.00000000
  94        -0.00000000
  95         0.00000000
  96         0.00000000
  97         0.00061626
  98         0.00068809
Sym=     5a  
Ene=   -11.3250
Spin= Alpha
Occup=    2.00000
   1         0.55222206
   2         0.00889046
   3        -0.00192220
   4        -0.00130460
   5         0.00121181
   6        -0.00032044
   7        -0.00081472
   8         0.00075677
   9        -0.00020012
  10         0.00000000
  11         0.00000000
  12         0.00000000
  13         0.00000000
  14        -0.00000000
  15        -0.00000000
  16        -0.56579302
  17        -0.00883013
  18         0.00227986
  19        -0.00095779
  20         0.00085685
  21        -0.00021954
  22        -0.00059814
  23         0.00053510
  24        -0.00013710
  25        -0.00000000
  26         0.00000000
  27        -0.00000000
  28        -0.00000000
  29        -0.00000000
  30        -0.00000000
  31         0.00100901
  32         0.00112662
  33         0.23639099
  34         0.00365460
  35        -0.00099114
  36         0.00085923
  37        -0.00079721
  38         0.00026767
  39         0.00053659
  40        -0.00049786
  41         0.00016716
  42        -0.00000000
  43         0.00000000
  44        -0.00000000
  45        -0.00000000
  46         0.00000000
  47        -0.00000000
  48         0.06401554
  49         0.00098757
  50        -0.00027076
  51        -0.00061351
  52        -0.00093704
  53        -0.00028401
  54        -0.00038314
  55        -0.00058518
  56        -0.00017737
  57        -0.00000000
  58        -0.00000000
  59         0.00000000
  60        -0.00000000
  61        -0.00000000
  62         0.00000000
  63         0.00034411
  64         0.00038422
  65        -0.39494231
  66        -0.00620265
  67         0.00154808
  68         0.00026576
  69         0.00116528
  70         0.00014192
  71         0.00016597
  72         0.00072772
  73         0.00008863
  74         0.00000000
  75         0.00000000
  76         0.00000000
  77         0.00000000
  78        -0.00000000
  79        -0.00000000
  80         0.00009756
  81         0.00010893
  82         0.39044533
  83         0.00621689
  84        -0.00143596
  85         0.00030876
  86         0.00133523
  87         0.00016627
  88         0.00019282
  89         0.00083385
  90         0.00010383
  91        -0.00000000
  92        -0.00000000
  93        -0.00000000
  94        -0.00000000
  95         0.00000000
  96        -0.00000000
  97         0.00079989
  98         0.00089311
Sym=     6a  
Ene=   -11.3220
Spin= Alpha
Occup=    2.00000
   1        -0.29867561
   2        -0.00475193
   3         0.00110263
   4         0.00075108
   5        -0.00069772
   6         0.00018366
   7         0.00046905
   8        -0.00043572
   9         0.00011470
  10        -0.00000000
  11        -0.00000000
  12        -0.00000000
  13         0.00000000
  14        -0.00000000
  15        -0.00000000
  16         0.33627419
  17         0.00508409
  18        -0.00153763
  19         0.00027924
  20        -0.00022245
  21         0.00004874
  22         0.00017438
  23        -0.00013892
  24         0.00003044
  25        -0.00000000
  26         0.00000000
  27        -0.00000000
  28         0.00000000
  29        -0.00000000
  30        -0.00000000
  31        -0.00054027
  32        -0.00060323
  33        -0.32396718
  34        -0.00491180
  35         0.00146601
  36         0.00032650
  37         0.00058652
  38         0.00017668
  39         0.00020390
  40         0.00036628
  41         0.00011033
  42        -0.00000000
  43        -0.00000000
  44        -0.00000000
  45        -0.00000000
  46         0.00000000
  47         0.00000000
  48         0.38621064
  49         0.00586610
  50        -0.00173587
  51         0.00036321
  52        -0.00076593
  53         0.00011555
  54         0.00022682
  55        -0.00047832
  56         0.00007216
  57         0.00000000
  58        -0.00000000
  59         0.00000000
  60         0.00000000
  61        -0.00000000
  62        -0.00000000
  63        -0.00044101
  64        -0.00049240
  65        -0.54134804
  66        -0.00822411
  67         0.00243132
  68         0.00019986
  69         0.00095617
  70         0.00010667
  71         0.00012481
  72         0.00059713
  73         0.00006662
  74         0.00000000
  75         0.00000000
  76         0.00000000
  77         0.00000000
  78         0.00000000
  79         0.00000000
  80         0.00052443
  81         0.00058555
  82         0.49468551
  83         0.00779749
  84        -0.00190748
  85         0.00040606
  86         0.00177156
  87         0.00021906
  88         0.00025358
  89         0.00110634
  90         0.00013680
  91        -0.00000000
  92         0.00000000
  93        -0.00000000
  94        -0.00000000
  95        -0.00000000
  96         0.00000000
  97         0.00100405
  98         0.00112107
Sym=     7a  
Ene=    -1.5484
Spin= Alpha
Occup=    2.00000
   1        -0.03446943
   2         0.04934819
   3         0.05568008
   4         0.02730833
   5        -0.02031033
   6         0.00811204
   7         0.01705404
   8        -0.01268379
   9         0.00506596
  10        -0.00000000
  11        -0.00000000
  12        -0.00000000
  13         0.00000000
  14         0.00000000
  15        -0.00000000
  16        -0.08692923
  17         0.11334034
  18         0.12804924
  19         0.04098172
  20        -0.01959471
  21         0.01500389
  22         0.02559306
  23        -0.01223689
  24         0.00936992
  25         0.00000000
  26         0.00000000
  27         0.00000000
  28        -0.00000000
  29         0.00000000
  30        -0.00000000
  31         0.01116393
  32         0.01246510
  33        -0.13776699
  34         0.17267206
  35         0.19519493
  36         0.02699666
  37         0.02934469
  38         0.01375225
  39         0.01685940
  40         0.01832574
  41         0.00858827
  42         0.00000000
  43        -0.00000000
  44        -0.00000000
  45         0.00000000
  46        -0.00000000
  47         0.00000000
  48        -0.13914097
  49         0.17459525
  50         0.19736554
  51        -0.03696160
  52         0.01274533
  53        -0.01320931
  54        -0.02308250
  55         0.00795945
  56        -0.00824921
  57         0.00000000
  58         0.00000000
  59        -0.00000000
  60         0.00000000
  61         0.00000000
  62         0.00000000
  63         0.06682168
  64         0.07460987
  65        -0.09420508
  66         0.12040568
  67         0.13607123
  68        -0.02623590
  69        -0.03555298
  70        -0.01158078
  71        -0.01638430
  72        -0.02220281
  73        -0.00723219
  74        -0.00000000
  75        -0.00000000
  76        -0.00000000
  77         0.00000000
  78        -0.00000000
  79         0.00000000
  80         0.06727632
  81         0.07511749
  82        -0.04323871
  83         0.05892520
  84         0.06653044
  85        -0.01342181
  86        -0.03475073
  87        -0.00645821
  88        -0.00838191
  89        -0.02170181
  90        -0.00403315
  91         0.00000000
  92         0.00000000
  93         0.00000000
  94        -0.00000000
  95         0.00000000
  96        -0.00000000
  97         0.01574774
  98         0.01758316
Sym=     8a  
Ene=    -1.3115
Spin= Alpha
Occup=    2.00000
   1         0.09462921
   2        -0.12845983
   3        -0.14504747
   4        -0.02558714
   5         0.03201971
   6        -0.00645469
   7        -0.01597916
   8         0.01999629
   9        -0.00403095
  10         0.00000000
  11         0.00000000
  12         0.00000000
  13        -0.00000000
  14         0.00000000
  15        -0.00000000
  16         0.10978715
  17        -0.14634383
  18        -0.16528324
  19         0.02574924
  20         0.00018699
  21         0.00684887
  22         0.01608039
  23         0.00011678
  24         0.00427712
  25         0.00000000
  26         0.00000000
  27         0.00000000
  28         0.00000000
  29         0.00000000
  30        -0.00000000
  31        -0.04715594
  32        -0.05265204
  33         0.06177443
  34        -0.08266755
  35        -0.09336096
  36         0.05510505
  37        -0.00142145
  38         0.01896281
  39         0.03441307
  40        -0.00088769
  41         0.01184226
  42         0.00000000
  43         0.00000000
  44         0.00000000
  45        -0.00000000
  46        -0.00000000
  47        -0.00000000
  48        -0.03298412
  49         0.04664522
  50         0.05263891
  51         0.05481631
  52         0.05007245
  53         0.02276896
  54         0.03423276
  55         0.03127022
  56         0.01421920
  57         0.00000000
  58        -0.00000000
  59        -0.00000000
  60        -0.00000000
  61         0.00000000
  62         0.00000000
  63        -0.04491526
  64        -0.05015022
  65        -0.13118700
  66         0.17027701
  67         0.19238754
  68         0.02580049
  69         0.04622472
  70         0.01118947
  71         0.01611240
  72         0.02886731
  73         0.00698782
  74        -0.00000000
  75         0.00000000
  76        -0.00000000
  77         0.00000000
  78         0.00000000
  79         0.00000000
  80         0.02385510
  81         0.02663546
  82        -0.13777274
  83         0.17877386
  84         0.20198855
  85        -0.00418353
  86        -0.04118781
  87        -0.00322151
  88        -0.00261261
  89        -0.02572176
  90        -0.00201183
  91         0.00000000
  92        -0.00000000
  93         0.00000000
  94        -0.00000000
  95         0.00000000
  96        -0.00000000
  97         0.07497963
  98         0.08371863
Sym=     9a  
Ene=    -1.2432
Spin= Alpha
Occup=    2.00000
   1        -0.14178381
   2         0.18975415
   3         0.21429942
   4         0.02002608
   5        -0.01710469
   6         0.00547982
   7         0.01250628
   8        -0.01068187
   9         0.00342214
  10        -0.00000000
  11        -0.00000000
  12        -0.00000000
  13         0.00000000
  14        -0.00000000
  15        -0.00000000
  16        -0.09829319
  17         0.13044645
  18         0.14733772
  19        -0.07068785
  20         0.06873952
  21        -0.01831218
  22        -0.04414453
  23         0.04292780
  24        -0.01143595
  25         0.00000000
  26         0.00000000
  27         0.00000000
  28        -0.00000000
  29         0.00000000
  30        -0.00000000
  31         0.08345050
  32         0.09317681
  33         0.05487005
  34        -0.06647878
  35        -0.07518926
  36        -0.06677867
  37         0.04867856
  38        -0.02233468
  39        -0.04170324
  40         0.03039974
  41        -0.01394799
  42         0.00000000
  43         0.00000000
  44         0.00000000
  45         0.00000000
  46        -0.00000000
  47        -0.00000000
  48         0.07572222
  49        -0.09510581
  50        -0.10750777
  51         0.01089535
  52         0.06185893
  53         0.00703070
  54         0.00680414
  55         0.03863087
  56         0.00439067
  57         0.00000000
  58         0.00000000
  59        -0.00000000
  60         0.00000000
  61         0.00000000
  62         0.00000000
  63        -0.04525437
  64        -0.05052885
  65        -0.05739910
  66         0.07307212
  67         0.08258415
  68         0.01465986
  69         0.09337510
  70         0.00941435
  71         0.00915507
  72         0.05831270
  73         0.00587925
  74         0.00000000
  75         0.00000000
  76         0.00000000
  77        -0.00000000
  78         0.00000000
  79         0.00000000
  80        -0.06171657
  81        -0.06890974
  82        -0.11280666
  83         0.14422234
  84         0.16298591
  85        -0.00437864
  86        -0.00433407
  87        -0.00167298
  88        -0.00273446
  89        -0.00270662
  90        -0.00104478
  91         0.00000000
  92         0.00000000
  93         0.00000000
  94        -0.00000000
  95        -0.00000000
  96        -0.00000000
  97         0.07202293
  98         0.08041733
Sym=    10a  
Ene=    -1.0514
Spin= Alpha
Occup=    2.00000
   1         0.08958316
   2        -0.12425922
   3        -0.14026268
   4         0.03779117
   5        -0.05210652
   6         0.00769800
   7         0.02360057
   8        -0.03254050
   9         0.00480739
  10         0.00000000
  11         0.00000000
  12         0.00000000
  13         0.00000000
  14        -0.00000000
  15         0.00000000
  16        -0.03198792
  17         0.04439433
  18         0.05011154
  19         0.06830412
  20        -0.11258531
  21         0.01462423
  22         0.04265589
  23        -0.07030947
  24         0.00913283
  25        -0.00000000
  26        -0.00000000
  27        -0.00000000
  28        -0.00000000
  29        -0.00000000
  30         0.00000000
  31        -0.09330544
  32        -0.10418036
  33        -0.09273658
  34         0.12638906
  35         0.14270145
  36        -0.09677666
  37        -0.03744925
  38        -0.03901967
  39        -0.06043697
  40        -0.02338704
  41        -0.02436776
  42         0.00000000
  43        -0.00000000
  44        -0.00000000
  45        -0.00000000
  46         0.00000000
  47         0.00000000
  48         0.08870565
  49        -0.12142749
  50        -0.13709115
  51        -0.10327799
  52        -0.03046329
  53        -0.04255822
  54        -0.06449705
  55        -0.01902431
  56        -0.02657758
  57         0.00000000
  58         0.00000000
  59         0.00000000
  60        -0.00000000
  61        -0.00000000
  62        -0.00000000
  63         0.09367387
  64         0.10459173
  65         0.04248627
  66        -0.05851957
  67        -0.06606272
  68         0.00045785
  69         0.12882588
  70         0.00468578
  71         0.00028593
  72         0.08045170
  73         0.00292627
  74         0.00000000
  75         0.00000000
  76         0.00000000
  77         0.00000000
  78        -0.00000000
  79         0.00000000
  80        -0.08738058
  81        -0.09756494
  82        -0.08507680
  83         0.11295055
  84         0.12757561
  85         0.00675329
  86         0.07553736
  87         0.00524787
  88         0.00421743
  89         0.04717304
  90         0.00327729
  91        -0.00000000
  92         0.00000000
  93        -0.00000000
  94         0.00000000
  95         0.00000000
  96        -0.00000000
  97         0.09436494
  98         0.10536334
Sym=    11a  
Ene=    -0.9300
Spin= Alpha
Occup=    2.00000
   1        -0.05829649
   2         0.08988957
   3         0.10132721
   4        -0.10317829
   5         0.05642749
   6        -0.02709391
   7        -0.06443479
   8         0.03523894
   9        -0.01692013
  10        -0.00000000
  11        -0.00000000
  12        -0.00000000
  13        -0.00000000
  14         0.00000000
  15        -0.00000000
  16         0.06414005
  17        -0.08568008
  18        -0.09676562
  19        -0.09135993
  20        -0.00245180
  21        -0.02863724
  22        -0.05705423