[Molden Format]
[N_Atoms]
                   10
[Atoms] (AU)
C1          1      6         -10.45702628      2.37755892     -2.04557184
C2          2      6          -8.81487317      0.84882718     -1.64049015
H3          3      1         -11.91366497      3.71278271     -2.35956873
C4          4      6          -6.88748481     -0.99938166     -1.05766081
C5          5      6          -4.62364960     -0.36226050     -0.13645712
H6          6      1          -7.34886144     -2.98247915     -1.30200240
C7          7      6          -3.86405529      2.23136971      0.26692382
H8          8      1          -3.29167614     -1.85223396      0.36936587
C9          9      6          -3.37346349      4.36137451      0.53154216
H10        10      1          -2.95492695      6.17857295      0.75728885
[Charge] (Mulliken)
 -0.46763078728628837     
  0.11060299835693321     
  0.29741820950112308     
 -0.17304690138994250     
 -0.17758067887153040     
  0.23180259058019170     
  0.19365166075237994     
  0.22759000530686146     
 -0.50825835746449233     
  0.26545126051309564     
[GTO] (AU)
   1
   s   6
  3.047524880E+03  1.834737132E-03
  4.573695180E+02  1.403732281E-02
  1.039486850E+02  6.884262227E-02
  2.921015530E+01  2.321844432E-01
  9.286662960E+00  4.679413484E-01
  3.163926960E+00  3.623119853E-01
   s   3
  7.868272350E+00 -1.193324198E-01
  1.881288540E+00 -1.608541517E-01
  5.442492580E-01  1.143456438E+00
   s   1
  1.687144782E-01  1.000000000E+00
   p   3
  7.868272350E+00  6.899906659E-02
  1.881288540E+00  3.164239610E-01
  5.442492580E-01  7.443082909E-01
   p   1
  1.687144782E-01  1.000000000E+00
   d   1
  8.000000000E-01  1.000000000E+00
 
   2
   s   6
  3.047524880E+03  1.834737132E-03
  4.573695180E+02  1.403732281E-02
  1.039486850E+02  6.884262227E-02
  2.921015530E+01  2.321844432E-01
  9.286662960E+00  4.679413484E-01
  3.163926960E+00  3.623119853E-01
   s   3
  7.868272350E+00 -1.193324198E-01
  1.881288540E+00 -1.608541517E-01
  5.442492580E-01  1.143456438E+00
   s   1
  1.687144782E-01  1.000000000E+00
   p   3
  7.868272350E+00  6.899906659E-02
  1.881288540E+00  3.164239610E-01
  5.442492580E-01  7.443082909E-01
   p   1
  1.687144782E-01  1.000000000E+00
   d   1
  8.000000000E-01  1.000000000E+00
 
   3
   s   3
  1.873113696E+01  3.349460434E-02
  2.825394365E+00  2.347269535E-01
  6.401216923E-01  8.137573261E-01
   s   1
  1.612777588E-01  1.000000000E+00
 
   4
   s   6
  3.047524880E+03  1.834737132E-03
  4.573695180E+02  1.403732281E-02
  1.039486850E+02  6.884262227E-02
  2.921015530E+01  2.321844432E-01
  9.286662960E+00  4.679413484E-01
  3.163926960E+00  3.623119853E-01
   s   3
  7.868272350E+00 -1.193324198E-01
  1.881288540E+00 -1.608541517E-01
  5.442492580E-01  1.143456438E+00
   s   1
  1.687144782E-01  1.000000000E+00
   p   3
  7.868272350E+00  6.899906659E-02
  1.881288540E+00  3.164239610E-01
  5.442492580E-01  7.443082909E-01
   p   1
  1.687144782E-01  1.000000000E+00
   d   1
  8.000000000E-01  1.000000000E+00
 
   5
   s   6
  3.047524880E+03  1.834737132E-03
  4.573695180E+02  1.403732281E-02
  1.039486850E+02  6.884262227E-02
  2.921015530E+01  2.321844432E-01
  9.286662960E+00  4.679413484E-01
  3.163926960E+00  3.623119853E-01
   s   3
  7.868272350E+00 -1.193324198E-01
  1.881288540E+00 -1.608541517E-01
  5.442492580E-01  1.143456438E+00
   s   1
  1.687144782E-01  1.000000000E+00
   p   3
  7.868272350E+00  6.899906659E-02
  1.881288540E+00  3.164239610E-01
  5.442492580E-01  7.443082909E-01
   p   1
  1.687144782E-01  1.000000000E+00
   d   1
  8.000000000E-01  1.000000000E+00
 
   6
   s   3
  1.873113696E+01  3.349460434E-02
  2.825394365E+00  2.347269535E-01
  6.401216923E-01  8.137573261E-01
   s   1
  1.612777588E-01  1.000000000E+00
 
   7
   s   6
  3.047524880E+03  1.834737132E-03
  4.573695180E+02  1.403732281E-02
  1.039486850E+02  6.884262227E-02
  2.921015530E+01  2.321844432E-01
  9.286662960E+00  4.679413484E-01
  3.163926960E+00  3.623119853E-01
   s   3
  7.868272350E+00 -1.193324198E-01
  1.881288540E+00 -1.608541517E-01
  5.442492580E-01  1.143456438E+00
   s   1
  1.687144782E-01  1.000000000E+00
   p   3
  7.868272350E+00  6.899906659E-02
  1.881288540E+00  3.164239610E-01
  5.442492580E-01  7.443082909E-01
   p   1
  1.687144782E-01  1.000000000E+00
   d   1
  8.000000000E-01  1.000000000E+00
 
   8
   s   3
  1.873113696E+01  3.349460434E-02
  2.825394365E+00  2.347269535E-01
  6.401216923E-01  8.137573261E-01
   s   1
  1.612777588E-01  1.000000000E+00
 
   9
   s   6
  3.047524880E+03  1.834737132E-03
  4.573695180E+02  1.403732281E-02
  1.039486850E+02  6.884262227E-02
  2.921015530E+01  2.321844432E-01
  9.286662960E+00  4.679413484E-01
  3.163926960E+00  3.623119853E-01
   s   3
  7.868272350E+00 -1.193324198E-01
  1.881288540E+00 -1.608541517E-01
  5.442492580E-01  1.143456438E+00
   s   1
  1.687144782E-01  1.000000000E+00
   p   3
  7.868272350E+00  6.899906659E-02
  1.881288540E+00  3.164239610E-01
  5.442492580E-01  7.443082909E-01
   p   1
  1.687144782E-01  1.000000000E+00
   d   1
  8.000000000E-01  1.000000000E+00
 
  10
   s   3
  1.873113696E+01  3.349460434E-02
  2.825394365E+00  2.347269535E-01
  6.401216923E-01  8.137573261E-01
   s   1
  1.612777588E-01  1.000000000E+00
 
[MO]
Sym=     1a  
Ene=   -11.2750
Spin= Alpha
Occup=    2.00000
   1         0.00021433
   2         0.00025786
   3        -0.00287055
   4         0.00012401
   5        -0.00009039
   6         0.00002258
   7        -0.00163077
   8         0.00146610
   9        -0.00040315
  10         0.00009683
  11         0.00005598
  12         0.00001282
  13        -0.00006974
  14         0.00001827
  15        -0.00001114
  16         0.00891579
  17         0.00019506
  18         0.00533813
  19        -0.00002844
  20         0.00006505
  21        -0.00001601
  22        -0.00073817
  23         0.00074902
  24        -0.00011385
  25        -0.00037749
  26        -0.00050498
  27        -0.00017236
  28         0.00027391
  29        -0.00007572
  30         0.00007392
  31        -0.00012082
  32        -0.00067856
  33         0.77016093
  34         0.02104813
  35        -0.00640144
  36        -0.00037655
  37         0.00034341
  38        -0.00010842
  39         0.00069121
  40        -0.00038793
  41         0.00015517
  42        -0.00134640
  43        -0.00155242
  44        -0.00180281
  45        -0.00000777
  46         0.00022992
  47         0.00001553
  48         0.63042077
  49         0.01709800
  50        -0.00334192
  51         0.00016417
  52         0.00039512
  53         0.00008029
  54        -0.00062698
  55         0.00007450
  56        -0.00021291
  57        -0.00121544
  58        -0.00128516
  59        -0.00151387
  60         0.00010886
  61         0.00016002
  62         0.00004975
  63        -0.00011683
  64         0.00136312
  65         0.00544354
  66         0.00004114
  67         0.00540669
  68         0.00000237
  69         0.00003487
  70         0.00000852
  71         0.00049905
  72         0.00233498
  73         0.00024959
  74        -0.00015213
  75        -0.00054888
  76        -0.00014199
  77        -0.00005560
  78        -0.00000956
  79        -0.00004298
  80        -0.00009322
  81         0.00120601
  82         0.00011784
  83         0.00026623
  84        -0.00401568
  85        -0.00003800
  86        -0.00011863
  87        -0.00001761
  88         0.00066039
  89         0.00275055
  90         0.00036114
  91         0.00001596
  92         0.00010179
  93         0.00000717
  94         0.00003678
  95         0.00000550
  96         0.00001527
  97        -0.00012549
  98        -0.00090545
Sym=     2a  
Ene=   -11.2730
Spin= Alpha
Occup=    2.00000
   1         0.00026625
   2         0.00021911
   3         0.00055795
   4         0.00015465
   5        -0.00014803
   6         0.00002684
   7        -0.00022237
   8         0.00005738
   9        -0.00007248
  10         0.00008063
  11         0.00009450
  12        -0.00001165
  13        -0.00010773
  14         0.00001935
  15        -0.00001631
  16         0.00787957
  17         0.00035145
  18         0.00420690
  19        -0.00000945
  20         0.00001954
  21         0.00000031
  22         0.00220497
  23        -0.00150562
  24         0.00067785
  25        -0.00046351
  26        -0.00049109
  27        -0.00011467
  28         0.00029649
  29        -0.00014355
  30         0.00007072
  31        -0.00007412
  32        -0.00014889
  33         0.63094798
  34         0.01784978
  35        -0.01423352
  36        -0.00011589
  37         0.00041394
  38        -0.00001263
  39        -0.00078947
  40        -0.00362545
  41        -0.00056680
  42        -0.00071918
  43        -0.00090049
  44        -0.00127077
  45        -0.00008341
  46         0.00027741
  47        -0.00001323
  48        -0.77063760
  49        -0.02163417
  50         0.01501286
  51         0.00006870
  52        -0.00050658
  53         0.00001341
  54        -0.00239770
  55         0.00269291
  56        -0.00080838
  57         0.00110494
  58         0.00104004
  59         0.00159818
  60        -0.00018587
  61        -0.00028801
  62        -0.00010266
  63        -0.00012466
  64         0.00049712
  65        -0.00710072
  66        -0.00026737
  67        -0.00584116
  68        -0.00000145
  69         0.00000684
  70         0.00000306
  71         0.00101719
  72         0.00164613
  73         0.00044611
  74         0.00027282
  75         0.00085737
  76         0.00013400
  77         0.00015711
  78         0.00008681
  79         0.00009699
  80         0.00014801
  81        -0.00075219
  82        -0.00021746
  83        -0.00034415
  84         0.00069627
  85         0.00004323
  86         0.00025756
  87         0.00002293
  88        -0.00041888
  89        -0.00107325
  90        -0.00019223
  91         0.00001968
  92        -0.00020427
  93         0.00002985
  94        -0.00002720
  95        -0.00000708
  96        -0.00001944
  97         0.00011813
  98         0.00046817
Sym=     3a  
Ene=   -11.2410
Spin= Alpha
Occup=    2.00000
   1         0.25132184
   2         0.00569568
   3         0.00150557
   4        -0.00048360
   5         0.00044465
   6        -0.00010771
   7         0.00139868
   8        -0.00125288
   9         0.00038637
  10        -0.00058824
  11        -0.00064112
  12        -0.00089670
  13        -0.00034566
  14         0.00011399
  15        -0.00009918
  16         0.96288373
  17         0.02581426
  18        -0.00935191
  19         0.00027432
  20        -0.00020995
  21         0.00009785
  22        -0.00071035
  23         0.00056269
  24        -0.00029680
  25        -0.00133450
  26        -0.00151198
  27        -0.00256093
  28        -0.00145222
  29         0.00040787
  30        -0.00039575
  31        -0.00031298
  32         0.00086008
  33        -0.01202497
  34        -0.00012494
  35         0.00274530
  36         0.00045745
  37        -0.00046113
  38         0.00013394
  39        -0.00140736
  40         0.00057274
  41        -0.00044367
  42        -0.00084909
  43        -0.00066687
  44        -0.00024800
  45         0.00056474
  46        -0.00026256
  47         0.00017872
  48         0.00045061
  49        -0.00018390
  50         0.00008113
  51        -0.00002566
  52        -0.00010849
  53        -0.00001582
  54        -0.00051100
  55        -0.00017051
  56        -0.00022799
  57         0.00016039
  58         0.00008345
  59        -0.00003219
  60         0.00009283
  61         0.00010897
  62         0.00005024
  63        -0.00014027
  64        -0.00013851
  65        -0.00067939
  66        -0.00020376
  67         0.00154578
  68         0.00014602
  69         0.00000412
  70         0.00005260
  71        -0.00043916
  72         0.00004624
  73        -0.00014992
  74        -0.00011933
  75        -0.00015621
  76        -0.00017692
  77        -0.00002762
  78         0.00002711
  79        -0.00000811
  80         0.00001403
  81         0.00025591
  82        -0.00008883
  83         0.00004950
  84        -0.00051294
  85         0.00002309
  86        -0.00004318
  87         0.00000717
  88         0.00021371
  89         0.00038256
  90         0.00008843
  91        -0.00001904
  92         0.00005559
  93        -0.00000927
  94        -0.00001570
  95        -0.00000518
  96        -0.00000181
  97        -0.00002911
  98        -0.00013893
Sym=     4a  
Ene=   -11.2340
Spin= Alpha
Occup=    2.00000
   1         0.96327537
   2         0.02640200
   3        -0.01360540
   4         0.00018453
   5        -0.00017921
   6         0.00002770
   7        -0.00292181
   8         0.00270430
   9        -0.00072205
  10        -0.00170434
  11        -0.00183669
  12        -0.00260471
  13        -0.00100708
  14         0.00025260
  15        -0.00022726
  16        -0.25268564
  17        -0.00794464
  18         0.01100600
  19         0.00030249
  20        -0.00029708
  21         0.00008059
  22        -0.00299433
  23         0.00282473
  24        -0.00071348
  25         0.00037006
  26         0.00037552
  27         0.00041460
  28         0.00007511
  29        -0.00002818
  30         0.00003407
  31        -0.00088424
  32         0.00085085
  33         0.00286900
  34         0.00015604
  35        -0.00002627
  36        -0.00003744
  37         0.00003652
  38        -0.00001175
  39         0.00041935
  40        -0.00025500
  41         0.00010440
  42         0.00010321
  43         0.00006966
  44         0.00005898
  45        -0.00002505
  46         0.00002163
  47        -0.00001041
  48        -0.00004687
  49         0.00001859
  50         0.00019986
  51        -0.00001505
  52         0.00003345
  53        -0.00000376
  54         0.00019228
  55         0.00033315
  56         0.00009943
  57        -0.00002449
  58         0.00000506
  59         0.00001237
  60        -0.00001512
  61        -0.00002086
  62        -0.00000980
  63         0.00004039
  64        -0.00004311
  65         0.00034854
  66         0.00007433
  67        -0.00057741
  68        -0.00003634
  69        -0.00001418
  70        -0.00001345
  71         0.00021911
  72         0.00030301
  73         0.00008773
  74         0.00003486
  75         0.00002982
  76         0.00005469
  77         0.00000935
  78        -0.00000859
  79         0.00000161
  80         0.00000200
  81        -0.00003362
  82         0.00003119
  83        -0.00001763
  84        -0.00004489
  85         0.00000797
  86         0.00001055
  87         0.00000263
  88        -0.00008117
  89        -0.00004570
  90        -0.00002771
  91        -0.00000399
  92        -0.00001624
  93        -0.00000772
  94         0.00001195
  95         0.00000213
  96         0.00000336
  97         0.00000687
  98         0.00003903
Sym=     5a  
Ene=   -11.2300
Spin= Alpha
Occup=    2.00000
   1        -0.00015189
   2         0.00003843
   3        -0.00012756
   4         0.00001890
   5        -0.00004079
   6         0.00000198
   7        -0.00025757
   8         0.00003522
   9        -0.00008936
  10        -0.00000281
  11         0.00005251
  12         0.00000116
  13        -0.00002958
  14        -0.00000639
  15        -0.00000352
  16         0.00063314
  17        -0.00015585
  18         0.00134121
  19        -0.00013834
  20        -0.00006628
  21        -0.00005546
  22         0.00063625
  23         0.00001831
  24         0.00024260
  25        -0.00015093
  26        -0.00013169
  27        -0.00017970
  28         0.00003029
  29         0.00001962
  30         0.00001481
  31        -0.00002426
  32        -0.00008355
  33         0.00027720
  34        -0.00016141
  35        -0.00039661
  36         0.00007966
  37        -0.00008937
  38         0.00002942
  39         0.00051152
  40        -0.00004079
  41         0.00017817
  42         0.00021274
  43         0.00002519
  44        -0.00002172
  45        -0.00000317
  46         0.00012514
  47         0.00000192
  48        -0.00929473
  49        -0.00006552
  50         0.00261660
  51        -0.00016614
  52        -0.00065399
  53        -0.00009065
  54         0.00062494
  55         0.00120734
  56         0.00029375
  57        -0.00040776
  58        -0.00118017
  59        -0.00023934
  60        -0.00041188
  61        -0.00011487
  62        -0.00021254
  63         0.00002019
  64         0.00022333
  65         0.97796334
  66         0.02671904
  67        -0.01108091
  68        -0.00014945
  69        -0.00022021
  70        -0.00007194
  71         0.00030113
  72        -0.00023115
  73         0.00012178
  74        -0.00270802
  75        -0.00037400
  76        -0.00280856
  77         0.00075926
  78         0.00009482
  79         0.00040278
  80        -0.00012351
  81        -0.00003715
  82         0.18383405
  83         0.00380690
  84         0.00356063
  85         0.00009621
  86         0.00052306
  87         0.00005373
  88        -0.00076143
  89        -0.00269521
  90        -0.00039472
  91        -0.00075792
  92         0.00006998
  93        -0.00081588
  94         0.00029795
  95         0.00004651
  96         0.00015578
  97        -0.00039580
  98         0.00106048
Sym=     6a  
Ene=   -11.2170
Spin= Alpha
Occup=    2.00000
   1        -0.00001737
   2         0.00000533
   3         0.00052331
   4         0.00001932
   5        -0.00000252
   6         0.00000601
   7         0.00014299
   8        -0.00019224
   9         0.00002289
  10         0.00000318
  11         0.00001700
  12         0.00000869
  13        -0.00000121
  14        -0.00000301
  15         0.00000079
  16         0.00001255
  17        -0.00004599
  18         0.00019058
  19        -0.00003001
  20         0.00001383
  21        -0.00001016
  22         0.00060061
  23        -0.00048883
  24         0.00017475
  25        -0.00002556
  26        -0.00000755
  27        -0.00003490
  28         0.00000374
  29         0.00000608
  30         0.00000287
  31         0.00000220
  32         0.00004515
  33         0.00000298
  34        -0.00000793
  35        -0.00040919
  36        -0.00000912
  37        -0.00003897
  38        -0.00000555
  39         0.00042854
  40        -0.00025945
  41         0.00014800
  42         0.00000135
  43        -0.00001164
  44        -0.00001614
  45         0.00001458
  46         0.00001101
  47         0.00000531
  48        -0.00158486
  49        -0.00014969
  50         0.00003604
  51         0.00000631
  52         0.00003278
  53         0.00000403
  54         0.00015675
  55         0.00054259
  56         0.00007912
  57        -0.00003785
  58         0.00002713
  59        -0.00003675
  60         0.00001644
  61         0.00000048
  62         0.00000883
  63         0.00000058
  64         0.00003139
  65         0.18557829
  66         0.00645910
  67        -0.01128465
  68         0.00009416
  69         0.00044239
  70         0.00005156
  71        -0.00085383
  72        -0.00401201
  73        -0.00046792
  74        -0.00025747
  75        -0.00047284
  76        -0.00024313
  77        -0.00004245
  78        -0.00000940
  79        -0.00002480
  80        -0.00002745
  81         0.00008436
  82        -0.97825671
  83        -0.02751580
  84         0.01412131
  85        -0.00001312
  86         0.00021295
  87        -0.00000219
  88        -0.00090884
  89        -0.00393190
  90        -0.00048881
  91         0.00287971
  92         0.00085385
  93         0.00296620
  94        -0.00056434
  95        -0.00007354
  96        -0.00030555
  97         0.00107363
  98        -0.00097779
Sym=     7a  
Ene=    -1.1137
Spin= Alpha
Occup=    2.00000
   1        -0.04054565
   2         0.07218853
   3         0.09484889
   4         0.03145522
   5        -0.02721736
   6         0.00864776
   7         0.02032870
   8        -0.01871141
   9         0.00483780
  10         0.00128697
  11         0.00034634
  12        -0.00210094
  13        -0.00350827
  14         0.00114893
  15        -0.00094214
  16        -0.08160572
  17         0.15692355
  18         0.06177384
  19         0.02941917
  20        -0.01933777
  21         0.01121463
  22         0.03630617
  23        -0.03133548
  24         0.01006989
  25         0.00713221
  26         0.00396706
  27        -0.00520965
  28        -0.01332889
  29         0.00454234
  30        -0.00381875
  31         0.01377224
  32         0.00622031
  33        -0.13335875
  34         0.25897810
  35         0.15354513
  36         0.05279364
  37         0.04749160
  38         0.02524400
  39         0.00770279
  40        -0.00531242
  41         0.00337149
  42         0.00925927
  43         0.00494890
  44        -0.00784238
  45         0.00204897
  46         0.00893582
  47         0.00185917
  48        -0.13424568
  49         0.26076206
  50         0.14882491
  51        -0.06868898
  52         0.01509266
  53        -0.02568541
  54        -0.00881798
  55        -0.01463657
  56        -0.00392344
  57         0.00912631
  58         0.00511107
  59        -0.00770411
  60         0.00208271
  61         0.00935789
  62         0.00139062
  63         0.06189639
  64         0.00434271
  65        -0.09088026
  66         0.17114711
  67         0.05929857
  68        -0.01585165
  69        -0.02015296
  70        -0.00727624
  71        -0.01776658
  72        -0.06301981
  73        -0.00927390
  74        -0.00428438
  75         0.01676914
  76        -0.00623880
  77         0.00833921
  78         0.00150505
  79         0.00429475
  80         0.06178231
  81         0.00458996
  82        -0.05136512
  83         0.08894448
  84         0.12483809
  85        -0.01399030
  86        -0.04883605
  87        -0.00721376
  88        -0.00794337
  89        -0.03542400
  90        -0.00426984
  91        -0.00214189
  92         0.00496842
  93        -0.00268784
  94         0.00257948
  95         0.00042123
  96         0.00133276
  97         0.01866881
  98         0.00805085
Sym=     8a  
Ene=    -1.0364
Spin= Alpha
Occup=    2.00000
   1         0.09266942
   2        -0.16971624
   3        -0.19686625
   4        -0.06105357
   5         0.05903564
   6        -0.01571985
   7        -0.02475726
   8         0.02572601
   9        -0.00545118
  10        -0.00384988
  11        -0.00303494
  12         0.00588236
  13         0.01142388
  14        -0.00281819
  15         0.00270826
  16         0.11219017
  17        -0.20904370
  18        -0.13029637
  19         0.03967594
  20        -0.03038881
  21         0.00833181
  22        -0.06261670
  23         0.05754571
  24        -0.01752817
  25        -0.00362636
  26        -0.00271377
  27         0.00747751
  28         0.01320404
  29        -0.00370931
  30         0.00356076
  31        -0.03717945
  32        -0.00869543
  33         0.05473265
  34        -0.10914235
  35        -0.02905460
  36         0.04288538
  37        -0.02019459
  38         0.01359853
  39        -0.02098056
  40         0.03084742
  41        -0.00689076
  42        -0.00345100
  43        -0.00540795
  44         0.00378579
  45         0.00471990
  46        -0.00317839
  47         0.00109005
  48        -0.02014193
  49         0.04322973
  50        -0.04166413
  51         0.05088752
  52         0.05328166
  53         0.02184199
  54        -0.00610610
  55        -0.04170559
  56        -0.00417743
  57        -0.00281088
  58         0.00936958
  59        -0.00185726
  60         0.00180368
  61        -0.00029257
  62         0.00121101
  63        -0.03369870
  64        -0.00250242
  65        -0.13728010
  66         0.24718136
  67         0.14433563
  68         0.02862049
  69         0.10718129
  70         0.01458023
  71        -0.02813812
  72        -0.10570070
  73        -0.01505885
  74        -0.00811167
  75         0.01382525
  76        -0.00905278
  77         0.00618954
  78         0.00084926
  79         0.00340572
  80         0.01437916
  81        -0.00060885
  82        -0.13360525
  83         0.23909018
  84         0.27516266
  85        -0.02485367
  86        -0.11309020
  87        -0.01368963
  88        -0.00696103
  89        -0.04352053
  90        -0.00410844
  91        -0.00830067
  92         0.01964467
  93        -0.00925679
  94         0.00733241
  95         0.00087924
  96         0.00402964
  97         0.05782786
  98         0.00973531
Sym=     9a  
Ene=    -0.9975
Spin= Alpha
Occup=    2.00000
   1        -0.13305339
   2         0.24635594
   3         0.20900201
   4         0.07882476
   5        -0.07530231
   6         0.01995027
   7        -0.00007217
   8         0.00014293
   9         0.00015328
  10         0.00681428
  11         0.00468017
  12        -0.00931407
  13        -0.01824407
  14         0.00460900
  15        -0.00422344
  16        -0.10622056
  17         0.19314614
  18         0.15484142
  19        -0.12046589
  20         0.10667553
  21        -0.03092839
  22         0.01115535
  23        -0.01420574
  24         0.00314902
  25        -0.00081865
  26        -0.00049550
  27        -0.00639812
  28        -0.00663753
  29         0.00143422
  30        -0.00145122
  31         0.05943925
  32         0.00251798
  33         0.06515443
  34        -0.12331512
  35        -0.13415526
  36        -0.09291212
  37         0.01651959
  38        -0.03502572
  39        -0.00375215
  40        -0.00430673
  41        -0.00168417
  42        -0.00303745
  43         0.00080208
  44         0.00368560
  45        -0.00753598
  46        -0.00433579
  47        -0.00292683
  48         0.08237250
  49        -0.15785240
  50        -0.15295422
  51         0.05414720
  52         0.04287118
  53         0.02281421
  54        -0.00171715
  55        -0.00027200
  56        -0.00100963
  57        -0.00680676
  58         0.00165095
  59         0.00460057
  60         0.00071472
  61        -0.00633877
  62         0.00015373
  63        -0.03982257
  64        -0.01031431
  65        -0.06484441
  66         0.11154028
  67         0.08443987
  68         0.03705780
  69         0.14223384
  70         0.01960874
  71        -0.00119191
  72        -0.01762993
  73        -0.00104657
  74        -0.00344302
  75        -0.00018911
  76        -0.00336906
  77        -0.00020326
  78        -0.00007515
  79        -0.00000719
  80        -0.05131750
  81        -0.01163858
  82        -0.10111075
  83         0.18309880
  84         0.16348848
  85        -0.01669234
  86        -0.07513632
  87        -0.00906684
  88        -0.00118872
  89        -0.00129420
  90        -0.00048863
  91        -0.00690351
  92         0.01677371
  93        -0.00793626
  94         0.00650821
  95         0.00086418
  96         0.00352183
  97         0.04927081
  98         0.00172283
Sym=    10a  
Ene=    -0.8613
Spin= Alpha
Occup=    2.00000
   1         0.07732341
   2        -0.14786142
   3        -0.12731248
   4        -0.01144112
   5         0.00442436
   6        -0.00334042
   7         0.01286836
   8        -0.01646672
   9         0.00288056
  10        -0.00720416
  11        -0.00353701
  12         0.00619648
  13         0.01394988
  14        -0.00377042
  15         0.00316600
  16        -0.02628309
  17         0.06276485
  18         0.02764707
  19         0.13924535
  20        -0.15200489
  21         0.03691398
  22         0.02150473
  23        -0.01765711
  24         0.00566391
  25         0.00578053
  26         0.00761736
  27        -0.00193516
  28        -0.01121780
  29         0.00270102
  30        -0.00327066
  31        -0.06400409
  32        -0.01632255
  33        -0.10418574
  34         0.20808580
  35         0.19312174
  36        -0.13304654
  37        -0.01355359
  38        -0.04940443
  39        -0.05497753
  40        -0.02186593
  41        -0.02133891
  42        -0.00087457
  43         0.01442520
  44        -0.00804054
  45        -0.00534957
  46         0.00297941
  47        -0.00087775
  48         0.10287040
  49        -0.20539359
  50        -0.19687192
  51        -0.12288498
  52        -0.06459373
  53        -0.05165656
  54        -0.05958057
  55        -0.01327870
  56        -0.02461287
  57         0.00206311
  58        -0.01513782
  59         0.00760237
  60         0.00405106
  61        -0.00325269
  62         0.00071793
  63         0.10568893
  64         0.03204673
  65         0.03249225
  66        -0.07596996
  67        -0.05064323
  68         0.03824979
  69         0.19809446
  70         0.02244792
  71         0.00567374
  72         0.01381225
  73         0.00280587
  74         0.00270278
  75        -0.01744472
  76         0.00303469
  77        -0.00544935
  78        -0.00048970
  79        -0.00309482
  80        -0.10237789
  81        -0.03088761
  82        -0.07505683
  83         0.14244862
  84         0.13365000
  85        -0.00269663
  86         0.00362907
  87        -0.00081099
  88         0.00065391
  89         0.01443725
  90         0.00075548
  91        -0.00575133
  92         0.01751651
  93        -0.00699818
  94         0.00727523
  95         0.00101193
  96         0.00380238
  97         0.07129004
  98         0.02067212
Sym=    11a  
Ene=    -0.7556
Spin= Alpha
Occup=    2.00000
   1        -0.05951538
   2         0.12021967
   3         0.09055921
   4        -0.08741565
   5         0.07712267
   6        -0.02041061
   7        -0.05254792
   8         0.04492948
   9        -0.01259812
  10         0.00775272
  11         0.00628137
  12        -0.00439533
  13        -0.01397113
  14         0.00318696
  15        -0.00306248
  16         0.05879641
  17        -0.12280499
  18        -0.06015585
  19        -0.07486449
  20         0.06426431
  21        -0.02098109
  22        -0.03106364