   This run of MOLCAS is using the pymolcas driver

                             OPE
                             OPE          NMOL  CASOP  ENMOLC A   SO
                 OPE        NMOLC        AS  OP EN  MO LC     AS  OP
                OPENM       OL CA        SO  PE NM  OL CA     SOP EN
                OP EN      MO   LC       AS  OP ENMOL  CASO   PENMOL
                OP  EN     MO   LC       AS  OP EN     MO     LC ASO
               OP   E  NMOL  C  AS       OP  EN MO     LC     AS  OP
               OP  E   NMO   LC AS        OPEN  MO     LCASOP EN   M
               O  PEN   MO  LCA  SO
            OPE   NMO   L   CAS    OP
        OPENMOL  CASOP     ENMOL   CASOPE
     OPENMOLCA   SOPENMOLCASOPEN   MOLCASOPE
    OPENMOLCAS   OP           EN   MOL    CAS
    OPENMOLCAS       OP  ENM        O     LCA
    OPENMOLCAS    OPEN  MOLCASO     P  E  NMO
    OPENMOLCAS     OP               E  N  MOL
    OPENMOLCA   SO           PENM   O  L  CAS    OPEN    MO    LCAS
    OPENMOLCA   SOP           ENM   O  L  CAS   OP  EN  MOLC  AS   O
    OPENMOLCA   SOPE           NM      O  LCA   S      OP  EN MO
    OPENMOLC                AS         O  PEN   M      OL  CA  SOPE
    OPENMO        LCASOPE  NMOL        C  ASO   P      ENMOLC     AS
    OPE     NMO      LCA  SO     P     E   NM   OL  CA SO  PE N   MO
          OPENMOLCA            SOPE   NMO        LCAS  O    P  ENMO
     OPENMOLCASOPENMOLCASOPENMOLCASOPENMOLCA
        OPENMOLCASOPENMOLCASOPENMOLCASOPE
            OPENMOLCASOPENMOLCASOPENM
               OPENMOLCASOPENMOLCA        version: 24.02
                   OPENMOLCASO
                       OPE                tag: 428-g03afa2e9a

 OpenMolcas is free software; you can redistribute it and/or modify it
 under the terms of the GNU Lesser General Public License version 2.1.
 OpenMolcas is distributed in the hope that it will be useful, but it
 is provided "as is" and without any express or implied warranties.
 For more details see the full text of the license in the file
 LICENSE or in <http://www.gnu.org/licenses/>.

                 Copyright (C) The OpenMolcas Authors
           For the author list and the recommended citation,
                   consult the file CONTRIBUTORS.md

           *************************************************
           * pymolcas version py2.28                       *
           *   build c4a6d18ded8cb6cad61d2372a9abd97c      *
           *   (after the EMIL interpreter by V. Veryazov) *
           *************************************************

configuration info
------------------
Host name: DESKTOP-ET1S6F4 (Linux)
C Compiler ID: GNU
C flags: -std=gnu99 -fopenmp
Fortran Compiler ID: GNU
Fortran flags: -fno-aggressive-loop-optimizations -cpp -fdefault-integer-8 -fopenmp
Definitions: _WARNING_WORKAROUND_;_MOLCAS_;_I8_;_LINUX_
Parallel: OFF (GA=OFF)


   ----------------------------------------------------------------------
  |
  |           Project: reactant
  |    Submitted from: /home/kenya/molcas_test/0625
  |      Scratch area: /tmp/reactant
  |   Save outputs to: /home/kenya/molcas_test/0625
  |            Molcas: /home/kenya/OpenMolcas/builds/gnu_dev_omp
  |
  | Scratch area is NOT empty
  |
  |    MOLCAS_DRIVER = /home/kenya/OpenMolcas/builds/gnu_dev_omp/pymolcas
  |    MOLCAS_NPROCS = 1
  |    MOLCAS_SOURCE = /home/kenya/OpenMolcas
  | MOLCAS_STRUCTURE = 0
  |
   ----------------------------------------------------------------------

++ ---------   Input file   ---------

&GATEWAY
Coord = 10
        Energy:       5.7978134
C         -5.53362        1.25815       -1.08247
C         -4.66463        0.44918       -0.86811
H         -6.30444        1.96472       -1.24863
C         -3.64470       -0.52885       -0.55969
C         -2.44673       -0.19170       -0.07221
H         -3.88885       -1.57826       -0.68899
C         -2.04477        1.18079        0.14125
H         -1.74188       -0.98016        0.19546
C         -1.78516        2.30794        0.28128
H         -1.56368        3.26956        0.40074

  Basis = 6-31G*
  Group = Full
  NoCD

&SEWARD

&SCF

&MCKINLEY

&RASSCF
  Inactive = 14
  RAS2   = 12
  nActEl = 12 0 0
  LUMORB

-- ----------------------------------

--- Start Module: gateway at Tue Jun 25 13:14:23 2024 ---

()()()()()()()()()()()()()()()()()()()()()()()()()()()()()()()()()()()()()()()()()()()()()()()()()()

                                              &GATEWAY

                                   only a single process is used
                       available to each process: 2.0 GB of memory, 1 thread
                                             pid: 29144
()()()()()()()()()()()()()()()()()()()()()()()()()()()()()()()()()()()()()()()()()()()()()()()()()()


++    Symmetry information:
      ---------------------

                    Character Table for C1 

                             E  
                    a        1  x, y, xy, Rz, z, xz, Ry, yz, Rx, I
--


++    Basis set information:
      ----------------------


      Basis set label: C.6-31G**....

      Electronic valence basis set:
      ------------------
      Associated Effective Charge   6.000000 au
      Associated Actual Charge      6.000000 au
      Nuclear Model: Point charge

      Shell  nPrim  nBasis  Cartesian Spherical Contaminant
         s      10       3        X                  
         p       4       2        X                  
         d       1       1        X                  


      Basis set label: H.6-31G....

      Electronic valence basis set:
      ------------------
      Associated Effective Charge   1.000000 au
      Associated Actual Charge      1.000000 au
      Nuclear Model: Point charge

      Shell  nPrim  nBasis  Cartesian Spherical Contaminant
         s       4       2        X                  


      Basis set label: C.6-31G**....

      Electronic valence basis set:
      ------------------
      Associated Effective Charge   6.000000 au
      Associated Actual Charge      6.000000 au
      Nuclear Model: Point charge

      Shell  nPrim  nBasis  Cartesian Spherical Contaminant
         s      10       3        X                  
         p       4       2        X                  
         d       1       1        X                  


      Basis set label: H.6-31G....

      Electronic valence basis set:
      ------------------
      Associated Effective Charge   1.000000 au
      Associated Actual Charge      1.000000 au
      Nuclear Model: Point charge

      Shell  nPrim  nBasis  Cartesian Spherical Contaminant
         s       4       2        X                  


      Basis set label: C.6-31G**....

      Electronic valence basis set:
      ------------------
      Associated Effective Charge   6.000000 au
      Associated Actual Charge      6.000000 au
      Nuclear Model: Point charge

      Shell  nPrim  nBasis  Cartesian Spherical Contaminant
         s      10       3        X                  
         p       4       2        X                  
         d       1       1        X                  


      Basis set label: H.6-31G....

      Electronic valence basis set:
      ------------------
      Associated Effective Charge   1.000000 au
      Associated Actual Charge      1.000000 au
      Nuclear Model: Point charge

      Shell  nPrim  nBasis  Cartesian Spherical Contaminant
         s       4       2        X                  


      Basis set label: C.6-31G**....

      Electronic valence basis set:
      ------------------
      Associated Effective Charge   6.000000 au
      Associated Actual Charge      6.000000 au
      Nuclear Model: Point charge

      Shell  nPrim  nBasis  Cartesian Spherical Contaminant
         s      10       3        X                  
         p       4       2        X                  
         d       1       1        X                  


      Basis set label: H.6-31G....

      Electronic valence basis set:
      ------------------
      Associated Effective Charge   1.000000 au
      Associated Actual Charge      1.000000 au
      Nuclear Model: Point charge

      Shell  nPrim  nBasis  Cartesian Spherical Contaminant
         s       4       2        X                  
--


++    Molecular structure info:
      -------------------------

                    ************************************************ 
                    **** Cartesian Coordinates / Bohr, Angstrom **** 
                    ************************************************ 

     Center  Label                x              y              z                     x              y              z
        1      C1             -10.457026       2.377559      -2.045572             -5.533620       1.258150      -1.082470
        2      C2              -8.814873       0.848827      -1.640490             -4.664630       0.449180      -0.868110
        3      H3             -11.913665       3.712783      -2.359569             -6.304440       1.964720      -1.248630
        4      C4              -6.887485      -0.999382      -1.057661             -3.644700      -0.528850      -0.559690
        5      C5              -4.623650      -0.362260      -0.136457             -2.446730      -0.191700      -0.072210
        6      H6              -7.348861      -2.982479      -1.302002             -3.888850      -1.578260      -0.688990
        7      C7              -3.864055       2.231370       0.266924             -2.044770       1.180790       0.141250
        8      H8              -3.291676      -1.852234       0.369366             -1.741880      -0.980160       0.195460
        9      C9              -3.373463       4.361375       0.531542             -1.785160       2.307940       0.281280
       10      H10             -2.954927       6.178573       0.757289             -1.563680       3.269560       0.400740

                    *************************************** 
                    *    InterNuclear Distances / Bohr    * 
                    *************************************** 

               1 C1            2 C2            3 H3            4 C4            5 C5            6 H6    
    1 C1       0.000000
    2 C2       2.279864        0.000000
    3 H3       2.000803        4.280400        0.000000
    4 C4       5.012118        2.733202        7.011558        0.000000
    5 C5       6.721578        4.614673        8.642484        2.525765        0.000000
    6 H6       6.240480        4.116148        8.172050        2.050670        3.956112        0.000000
    7 C7       6.988295        5.482723        8.595886        4.618810        2.732511        6.464489
    8 H8       8.664024        6.468459       10.618624        3.961515        2.061560        4.531190
    9 C9       7.794479        6.831153        9.039593        6.603909        4.931725        8.549729
   10 H10      8.864831        8.276141        9.800710        8.383441        6.809252       10.366881

               7 C7            8 H8            9 C9           10 H10   
    7 C7       0.000000
    8 H8       4.124795        0.000000
    9 C9       2.201732        6.216263        0.000000
   10 H10      4.080121        8.047220        1.878389        0.000000

                    ******************************************* 
                    *    InterNuclear Distances / Angstrom    * 
                    ******************************************* 

               1 C1            2 C2            3 H3            4 C4            5 C5            6 H6    
    1 C1       0.000000
    2 C2       1.206452        0.000000
    3 H3       1.058779        2.265090        0.000000
    4 C4       2.652298        1.446348        3.710357        0.000000
    5 C5       3.556906        2.441980        4.573405        1.336577        0.000000
    6 H6       3.302320        2.178172        4.324463        1.085168        2.093484        0.000000
    7 C7       3.698047        2.901332        4.548747        2.444169        1.445983        3.420860
    8 H8       4.584804        3.422961        5.619134        2.096344        1.090931        2.397802
    9 C9       4.124661        3.614891        4.783546        3.494638        2.609757        4.524322
   10 H10      4.691067        4.379545        5.186312        4.436326        3.603301        5.485917

               7 C7            8 H8            9 C9           10 H10   
    7 C7       0.000000
    8 H8       2.182747        0.000000
    9 C9       1.165106        3.289504        0.000000
   10 H10      2.159107        4.258405        0.994001        0.000000

                    ************************************** 
                    *    Valence Bond Angles / Degree    * 
                    ************************************** 
                          Atom centers                 Phi
                      2 C2       1 C1       3 H3       178.72
                      1 C1       2 C2       4 C4       177.76
                      2 C2       4 C4       5 C5       122.63
                      2 C2       4 C4       6 H6       118.03
                      5 C5       4 C4       6 H6       119.28
                      4 C4       5 C5       7 C7       122.85
                      4 C4       5 C5       8 H8       119.10
                      7 C7       5 C5       8 H8       118.05
                      5 C5       7 C7       9 C9       176.32
                      7 C7       9 C9      10 H10      180.00

           ***************************************************************
           *              Valence Dihedral Angles / Degree               *
           ***************************************************************
                    Atom centers                       Phi1     Phi2     Theta 
           3 H3       1 C1       2 C2       4 C4        178.72   177.76     1.82
           1 C1       2 C2       4 C4       5 C5        177.76   122.63   -94.21
           1 C1       2 C2       4 C4       6 H6        177.76   118.03    82.85
           2 C2       4 C4       5 C5       7 C7        122.63   122.85    -2.47
           2 C2       4 C4       5 C5       8 H8        122.63   119.10   176.42
           6 H6       4 C4       5 C5       7 C7        119.28   122.85  -179.50
           6 H6       4 C4       5 C5       8 H8        119.28   119.10    -0.61
           4 C4       5 C5       7 C7       9 C9        122.85   176.32    -5.25
           8 H8       5 C5       7 C7       9 C9        118.05   176.32   175.85
           5 C5       7 C7       9 C9      10 H10       176.32   180.00   -25.86
--


            Nuclear Potential Energy            167.92359682 au

--- Stop Module: gateway at Tue Jun 25 13:14:23 2024 /rc=_RC_ALL_IS_WELL_ ---
*** files: xmldump
    saved to directory /home/kenya/molcas_test/0625

--- Start Module: seward at Tue Jun 25 13:14:23 2024 ---

()()()()()()()()()()()()()()()()()()()()()()()()()()()()()()()()()()()()()()()()()()()()()()()()()()

                                              &SEWARD

                                   only a single process is used
                       available to each process: 2.0 GB of memory, 1 thread
                                             pid: 29156
()()()()()()()()()()()()()()()()()()()()()()()()()()()()()()()()()()()()()()()()()()()()()()()()()()

               SEWARD will generate:
                  Multipole Moment integrals up to order  2
                  Kinetic Energy integrals
                  Nuclear Attraction integrals (point charge)
                  One-Electron Hamiltonian integrals
                  Velocity integrals
                  Orbital angular momentum around (-6.3389  1.4019 -0.6778 )
                  Velocity quadrupole around (-6.3389  1.4019 -0.6778 )
                  Two-Electron Repulsion integrals

                   Integrals are discarded if absolute value <: 1.00E-14
                   Integral cutoff threshold is set to       <: 1.00E-16

            Nuclear Potential Energy            167.92359682 au


      Basis set specifications :
      Symmetry species         a  
      Basis functions           98


      Input file to MOLDEN was generated!

--- Stop Module: seward at Tue Jun 25 13:14:25 2024 /rc=_RC_ALL_IS_WELL_ ---
*** files: reactant.GssOrb reactant.guessorb.molden xmldump
    saved to directory /home/kenya/molcas_test/0625
--- Module seward spent 2 seconds ---

--- Start Module: scf at Tue Jun 25 13:14:25 2024 ---

()()()()()()()()()()()()()()()()()()()()()()()()()()()()()()()()()()()()()()()()()()()()()()()()()()

                                                &SCF

                                   only a single process is used
                       available to each process: 2.0 GB of memory, 1 thread
                                             pid: 29197
()()()()()()()()()()()()()()()()()()()()()()()()()()()()()()()()()()()()()()()()()()()()()()()()()()

++    Input section:
      --------------

      Header of the integral files:
      
       Integrals generated by Gateway/Seward, Tue Jun 25 13:14:23 2024


      Cartesian coordinates in Angstrom:
      -----------------------------------------------------
      No.  Label        X            Y            Z        
      -----------------------------------------------------
       1   C1        -5.53362000   1.25815000  -1.08247000
       2   C2        -4.66463000   0.44918000  -0.86811000
       3   H3        -6.30444000   1.96472000  -1.24863000
       4   C4        -3.64470000  -0.52885000  -0.55969000
       5   C5        -2.44673000  -0.19170000  -0.07221000
       6   H6        -3.88885000  -1.57826000  -0.68899000
       7   C7        -2.04477000   1.18079000   0.14125000
       8   H8        -1.74188000  -0.98016000   0.19546000
       9   C9        -1.78516000   2.30794000   0.28128000
      10   H10       -1.56368000   3.26956000   0.40074000
      -----------------------------------------------------
      Nuclear repulsion energy =  167.92359682
--

++    Orbital specifications:
      -----------------------

      Symmetry species               1
                                     a
      Frozen orbitals                0
      Occupied orbitals             20
      Secondary orbitals            78
      Deleted orbitals               0
      Total number of orbitals      98
      Number of basis functions     98
--

      Molecular charge                           0.000

++    Optimization specifications:
      ----------------------------

      SCF Algorithm: Conventional
      Minimized density differences are used
      Number of density matrices in core                 5
      Maximum number of NDDO SCF iterations            400
      Maximum number of HF SCF iterations              400
      Threshold for SCF energy change             1.00E-09
      Threshold for density matrix                1.00E-04
      Threshold for Fock matrix                   1.50E-04
      Threshold for linear dependence             1.00E-09
      Threshold at which DIIS is turned on        1.50E-01
      Maximum depth in the DIIS procedure                5
      Maximum depth in the BFGS Hessian update          30
      Threshold at which QNR/C2DIIS is turned on  7.50E-02
      Threshold for Norm(delta) (QNR/C2DIIS)      1.00E-03
      All orbitals punched on: SCFORB
--

      Input vectors read from INPORB
      Orbital file label: * RASSCF average (pseudo-natural) orbita


++ Convergence information
                                   SCF        iterations: Energy and convergence statistics

Iter     Tot. SCF        One-elec.       Two-elec.     Energy      Max Dij or  Max Fij      DNorm      TNorm      AccCon     Time
         Energy          Energy          Energy        Change      Delta Norm                                                in Sec.
   1  -229.366985517  -641.087858012   243.797275678   0.00E+00    4.82E-02*   2.01E-02*    7.05E+00   2.34E+02   None         0.
   2  -229.374087780  -640.832651580   243.534966982  -7.10E-03*   2.69E-02*   6.77E-03*    2.40E-01   2.34E+02   EDIIS        0.
   3  -229.374811812  -640.803818508   243.505409878  -7.24E-04*   1.14E-02*   3.20E-03*    1.26E-01   2.34E+02   c2DIIS       0.
   4  -229.375095421  -640.870927721   243.572235482  -2.84E-04*   5.61E-03*   1.79E-03*    2.80E-02   2.34E+02   QNRc2DIIS    0.
   5  -229.375125126  -640.832977544   243.534255600  -2.97E-05*   2.60E-03*   1.17E-03*    1.17E-02   2.34E+02   QNRc2DIIS    0.
   6  -229.375142746  -640.849703758   243.550964193  -1.76E-05*   1.05E-03*   2.05E-04*    3.16E-03   2.34E+02   QNRc2DIIS    0.
   7  -229.375143716  -640.852217556   243.553477022  -9.69E-07*   3.21E-04    6.43E-05     1.14E-03   2.34E+02   QNRc2DIIS    0.
   8  -229.375143790  -640.852333855   243.553593247  -7.41E-08*   1.64E-04    4.33E-05     7.61E-04   2.34E+02   QNRc2DIIS    0.
   9  -229.375143835  -640.851814911   243.553074258  -4.53E-08*   5.33E-05    8.90E-06     2.43E-04   2.34E+02   QNRc2DIIS    0.
  10  -229.375143838  -640.851954869   243.553214212  -3.26E-09*   4.41E-05    5.70E-06     9.15E-05   2.34E+02   QNRc2DIIS    0.
  11  -229.375143840  -640.851952082   243.553211424  -1.21E-09*   1.06E-05    2.26E-06     3.91E-05   2.34E+02   QNRc2DIIS    0.
  12  -229.375143840  -640.851927794   243.553187136  -1.38E-10    4.66E-06    7.01E-07     2.06E-05   2.34E+02   QNRc2DIIS    0.

       Convergence after  12 Macro Iterations
--

 *****************************************************************************************************************************
 *                                                                                                                           *
 *                                             SCF/KS-DFT Program, Final results                                             *
 *                                                                                                                           *
 *                                                                                                                           *
 *                                                                                                                           *
 *                                                       Final Results                                                       *
 *                                                                                                                           *
 *****************************************************************************************************************************

::    Total SCF energy                               -229.3751438398
      One-electron energy                            -640.8519277942
      Two-electron energy                             243.5531871362
      Nuclear repulsion energy                        167.9235968183
      Kinetic energy (interpolated)                   229.1659924669
      Virial theorem                                    1.0009126632
      Total spin, S(S+1)                                0.0000000000
      Total spin, S                                     0.0000000000
      Max non-diagonal density matrix element           0.0000038581
      Max non-diagonal Fock matrix element              0.0000004750


      All orbitals with orbital energies smaller than  E(LUMO)+0.5 are printed

++    Molecular orbitals:
      -------------------

      Title: SCF orbitals

      Molecular orbitals for symmetry species 1: a  

          Orbital            1         2         3         4         5         6         7         8         9        10    
          Energy          -11.2748  -11.2731  -11.2413  -11.2340  -11.2302  -11.2172   -1.1137   -1.0364   -0.9975   -0.8613
          Occ. No.          2.0000    2.0000    2.0000    2.0000    2.0000    2.0000    2.0000    2.0000    2.0000    2.0000

        1 C1     1s         0.0002    0.0003    0.2513    0.9633   -0.0002   -0.0000   -0.0405    0.0927   -0.1331    0.0773
        2 C1     2s         0.0003    0.0002    0.0057    0.0264    0.0000    0.0000    0.0722   -0.1697    0.2464   -0.1479
        3 C1     *s        -0.0029    0.0006    0.0015   -0.0136   -0.0001    0.0005    0.0948   -0.1969    0.2090   -0.1273
        4 C1     2px        0.0001    0.0002   -0.0005    0.0002    0.0000    0.0000    0.0315   -0.0611    0.0788   -0.0114
        5 C1     *px       -0.0016   -0.0002    0.0014   -0.0029   -0.0003    0.0001    0.0203   -0.0248   -0.0001    0.0129
        6 C1     2py       -0.0001   -0.0001    0.0004   -0.0002   -0.0000   -0.0000   -0.0272    0.0590   -0.0753    0.0044
        7 C1     *py        0.0015    0.0001   -0.0013    0.0027    0.0000   -0.0002   -0.0187    0.0257    0.0001   -0.0165
        8 C1     2pz        0.0000    0.0000   -0.0001    0.0000    0.0000    0.0000    0.0086   -0.0157    0.0200   -0.0033
        9 C1     *pz       -0.0004   -0.0001    0.0004   -0.0007   -0.0001    0.0000    0.0048   -0.0055    0.0002    0.0029
       10 C1     *200       0.0001    0.0000   -0.0003   -0.0010   -0.0000    0.0000    0.0007   -0.0022    0.0039   -0.0042
       11 C1     *110      -0.0001   -0.0001   -0.0003   -0.0010   -0.0000   -0.0000   -0.0035    0.0114   -0.0182    0.0139
       12 C1     *101       0.0000    0.0000    0.0001    0.0003   -0.0000   -0.0000    0.0011   -0.0028    0.0046   -0.0038
       13 C1     *020       0.0000    0.0001   -0.0004   -0.0011    0.0000    0.0000    0.0002   -0.0018    0.0027   -0.0020
       14 C1     *011      -0.0000   -0.0000   -0.0001   -0.0002   -0.0000    0.0000   -0.0009    0.0027   -0.0042    0.0032
       15 C1     *002       0.0000   -0.0000   -0.0005   -0.0015    0.0000    0.0000   -0.0012    0.0034   -0.0054    0.0036
       16 C2     1s         0.0089    0.0079    0.9629   -0.2527    0.0006    0.0000   -0.0816    0.1122   -0.1062   -0.0263
       17 C2     2s         0.0002    0.0004    0.0258   -0.0079   -0.0002   -0.0000    0.1569   -0.2090    0.1931    0.0628
       18 C2     *s         0.0053    0.0042   -0.0094    0.0110    0.0013    0.0002    0.0618   -0.1303    0.1548    0.0276
       19 C2     2px       -0.0000   -0.0000    0.0003    0.0003   -0.0001   -0.0000    0.0294    0.0397   -0.1205    0.1392
       20 C2     *px       -0.0007    0.0022   -0.0007   -0.0030    0.0006    0.0006    0.0363   -0.0626    0.0112    0.0215
       21 C2     2py        0.0001    0.0000   -0.0002   -0.0003   -0.0001    0.0000   -0.0193   -0.0304    0.1067   -0.1520
       22 C2     *py        0.0007   -0.0015    0.0006    0.0028    0.0000   -0.0005   -0.0313    0.0575   -0.0142   -0.0177
       23 C2     2pz       -0.0000    0.0000    0.0001    0.0001   -0.0001   -0.0000    0.0112    0.0083   -0.0309    0.0369
       24 C2     *pz       -0.0001    0.0007   -0.0003   -0.0007    0.0002    0.0002    0.0101   -0.0175    0.0031    0.0057
       25 C2     *200      -0.0002   -0.0003   -0.0008    0.0002   -0.0001   -0.0000    0.0041   -0.0021   -0.0005    0.0033
       26 C2     *110       0.0003    0.0003   -0.0015    0.0001    0.0000    0.0000   -0.0133    0.0132   -0.0066   -0.0112
       27 C2     *101      -0.0001   -0.0001    0.0004   -0.0000    0.0000    0.0000    0.0045   -0.0037    0.0014    0.0027
       28 C2     *020      -0.0003   -0.0003   -0.0009    0.0002   -0.0001   -0.0000    0.0023   -0.0016   -0.0003    0.0044
       29 C2     *011       0.0001    0.0001   -0.0004    0.0000    0.0000    0.0000   -0.0038    0.0036   -0.0015   -0.0033
       30 C2     *002      -0.0001   -0.0001   -0.0015    0.0002   -0.0001   -0.0000   -0.0030    0.0043   -0.0037   -0.0011
       31 H3     1s        -0.0001   -0.0001   -0.0003   -0.0009   -0.0000    0.0000    0.0138   -0.0372    0.0594   -0.0640
       32 H3     *s        -0.0007   -0.0001    0.0009    0.0009   -0.0001    0.0000    0.0062   -0.0087    0.0025   -0.0163
       33 C4     1s         0.7702    0.6309   -0.0120    0.0029    0.0003    0.0000   -0.1334    0.0547    0.0652   -0.1042
       34 C4     2s         0.0210    0.0178   -0.0001    0.0002   -0.0002   -0.0000    0.2590   -0.1091   -0.1233    0.2081
       35 C4     *s        -0.0064   -0.0142    0.0027   -0.0000   -0.0004   -0.0004    0.1535   -0.0291   -0.1342    0.1931
       36 C4     2px       -0.0004   -0.0001    0.0005   -0.0000    0.0001   -0.0000    0.0528    0.0429   -0.0929   -0.1330
       37 C4     *px        0.0007   -0.0008   -0.0014    0.0004    0.0005    0.0004    0.0077   -0.0210   -0.0038   -0.0550
       38 C4     2py        0.0003    0.0004   -0.0005    0.0000   -0.0001   -0.0000    0.0475   -0.0202    0.0165   -0.0136
       39 C4     *py       -0.0004   -0.0036    0.0006   -0.0003   -0.0000   -0.0003   -0.0053    0.0308   -0.0043   -0.0219
       40 C4     2pz       -0.0001   -0.0000    0.0001   -0.0000    0.0000   -0.0000    0.0252    0.0136   -0.0350   -0.0494
       41 C4     *pz        0.0002   -0.0006   -0.0004    0.0001    0.0002    0.0001    0.0034   -0.0069   -0.0017   -0.0213
       42 C4     *200      -0.0008   -0.0004   -0.0005    0.0001    0.0001    0.0000    0.0053   -0.0020   -0.0018   -0.0005
       43 C4     *110      -0.0000   -0.0001    0.0006   -0.0000   -0.0000    0.0000    0.0020    0.0047   -0.0075   -0.0053
       44 C4     *101       0.0002    0.0003   -0.0003    0.0000    0.0001    0.0000    0.0089   -0.0032   -0.0043    0.0030
       45 C4     *020      -0.0009   -0.0005   -0.0004    0.0000    0.0000   -0.0000    0.0029   -0.0031    0.0005    0.0083
       46 C4     *011       0.0000   -0.0000    0.0002   -0.0000    0.0000    0.0000    0.0019    0.0011   -0.0029   -0.0009
       47 C4     *002      -0.0010   -0.0007   -0.0001    0.0000   -0.0000   -0.0000   -0.0045    0.0022    0.0021   -0.0046
       48 C5     1s         0.6304   -0.7706    0.0005   -0.0000   -0.0093   -0.0016   -0.1342   -0.0201    0.0824    0.1029
       49 C5     2s         0.0171   -0.0216   -0.0002    0.0000   -0.0001   -0.0001    0.2608    0.0432   -0.1579   -0.2054
       50 C5     *s        -0.0033    0.0150    0.0001    0.0002    0.0026    0.0000    0.1488   -0.0417   -0.1530   -0.1969
       51 C5     2px        0.0002    0.0001   -0.0000   -0.0000   -0.0002    0.0000   -0.0687    0.0509    0.0541   -0.1229
       52 C5     *px       -0.0006   -0.0024   -0.0005    0.0002    0.0006    0.0002   -0.0088   -0.0061   -0.0017   -0.0596
       53 C5     2py        0.0004   -0.0005   -0.0001    0.0000   -0.0007    0.0000    0.0151    0.0533    0.0429   -0.0646
       54 C5     *py        0.0001    0.0027   -0.0002    0.0003    0.0012    0.0005   -0.0146   -0.0417   -0.0003   -0.0133
       55 C5     2pz        0.0001    0.0000   -0.0000   -0.0000   -0.0001    0.0000   -0.0257    0.0218    0.0228   -0.0517
       56 C5     *pz       -0.0002   -0.0008   -0.0002    0.0001    0.0003    0.0001   -0.0039   -0.0042   -0.0010   -0.0246
       57 C5     *200      -0.0007    0.0006    0.0001   -0.0000   -0.0002   -0.0000    0.0053   -0.0016   -0.0039    0.0012
       58 C5     *110       0.0001   -0.0002    0.0001   -0.0000   -0.0004    0.0000    0.0021    0.0018    0.0007    0.0041
       59 C5     *101       0.0002   -0.0003    0.0001   -0.0000   -0.0001    0.0000    0.0094   -0.0003   -0.0063   -0.0033
       60 C5     *020      -0.0007    0.0006    0.0000    0.0000   -0.0007    0.0000    0.0030    0.0054    0.0010   -0.0087
       61 C5     *011       0.0000   -0.0001    0.0001   -0.0000   -0.0002    0.0000    0.0014    0.0012    0.0002    0.0007
       62 C5     *002      -0.0009    0.0009   -0.0000    0.0000   -0.0001   -0.0000   -0.0044   -0.0011    0.0027    0.0044
       63 H6     1s        -0.0001   -0.0001   -0.0001    0.0000    0.0000    0.0000    0.0619   -0.0337   -0.0398    0.1057
       64 H6     *s         0.0014    0.0005   -0.0001   -0.0000    0.0002    0.0000    0.0043   -0.0025   -0.0103    0.0320
       65 C7     1s         0.0054   -0.0071   -0.0007    0.0003    0.9780    0.1856   -0.0909   -0.1373   -0.0648    0.0325
       66 C7     2s         0.0000   -0.0003   -0.0002    0.0001    0.0267    0.0065    0.1711    0.2472    0.1115   -0.0760
       67 C7     *s         0.0054   -0.0058    0.0015   -0.0006   -0.0111   -0.0113    0.0593    0.1443    0.0844   -0.0506
       68 C7     2px        0.0000   -0.0000    0.0001   -0.0000   -0.0001    0.0001   -0.0159    0.0286    0.0371    0.0382
       69 C7     *px        0.0005    0.0010   -0.0004    0.0002    0.0003   -0.0009   -0.0178   -0.0281   -0.0012    0.0057
       70 C7     2py        0.0000    0.0000    0.0000   -0.0000   -0.0002    0.0004   -0.0202    0.1072    0.1422    0.1981
       71 C7     *py        0.0023    0.0016    0.0000    0.0003   -0.0002   -0.0040   -0.0630   -0.1057   -0.0176    0.0138
       72 C7     2pz        0.0000    0.0000    0.0001   -0.0000   -0.0001    0.0001   -0.0073    0.0146    0.0196    0.0224
       73 C7     *pz        0.0002    0.0004   -0.0001    0.0001    0.0001   -0.0005   -0.0093   -0.0151   -0.0010    0.0028
       74 C7     *200      -0.0001    0.0002   -0.0001    0.0000   -0.0016   -0.0001   -0.0025   -0.0047   -0.0020    0.0016
       75 C7     *110      -0.0001    0.0002   -0.0000    0.0000    0.0008   -0.0000    0.0083    0.0062   -0.0002   -0.0054
       76 C7     *101      -0.0000    0.0001    0.0000   -0.0000    0.0001   -0.0000    0.0015    0.0008   -0.0001   -0.0005
       77 C7     *020      -0.0003    0.0005   -0.0001    0.0000   -0.0002   -0.0003    0.0097    0.0080   -0.0001   -0.0101
       78 C7     *011      -0.0000    0.0001   -0.0000    0.0000    0.0004   -0.0000    0.0043    0.0034   -0.0000   -0.0031
       79 C7     *002      -0.0001    0.0001   -0.0001    0.0000   -0.0016   -0.0001   -0.0036   -0.0052   -0.0019    0.0018
       80 H8     1s        -0.0001    0.0001    0.0000    0.0000   -0.0001   -0.0000    0.0618    0.0144   -0.0513   -0.1024
       81 H8     *s         0.0012   -0.0008    0.0003   -0.0000   -0.0000    0.0001    0.0046   -0.0006   -0.0116   -0.0309
       82 C9     1s         0.0001   -0.0002   -0.0001    0.0000    0.1838   -0.9783   -0.0514   -0.1336   -0.1011   -0.0751
       83 C9     2s         0.0003   -0.0003    0.0000   -0.0000    0.0038   -0.0275    0.0889    0.2391    0.1831    0.1424
       84 C9     *s        -0.0040    0.0007   -0.0005   -0.0000    0.0036    0.0141    0.1248    0.2752    0.1635    0.1337
       85 C9     2px       -0.0000    0.0000    0.0000    0.0000    0.0001   -0.0000   -0.0140   -0.0249   -0.0167   -0.0027
       86 C9     *px        0.0007   -0.0004    0.0002   -0.0001   -0.0008   -0.0009   -0.0079   -0.0070   -0.0012    0.0007
       87 C9     2py       -0.0001    0.0003   -0.0000    0.0000    0.0005    0.0002   -0.0488   -0.1131   -0.0751    0.0036
       88 C9     *py        0.0028   -0.0011    0.0004   -0.0000   -0.0027   -0.0039   -0.0354   -0.0435   -0.0013    0.0144
       89 C9     2pz       -0.0000    0.0000    0.0000    0.0000    0.0001   -0.0000   -0.0072   -0.0137   -0.0091   -0.0008
       90 C9     *pz        0.0004   -0.0002    0.0001   -0.0000   -0.0004   -0.0005   -0.0043   -0.0041   -0.0005    0.0008
       91 C9     *200       0.0000    0.0000   -0.0000   -0.0000   -0.0004    0.0017   -0.0012   -0.0048   -0.0040   -0.0033
       92 C9     *110       0.0000   -0.0000   -0.0000    0.0000    0.0003   -0.0006    0.0026    0.0073    0.0065    0.0073
       93 C9     *101       0.0000   -0.0000   -0.0000    0.0000    0.0000   -0.0001    0.0004    0.0009    0.0009    0.0010
       94 C9     *020       0.0001   -0.0001    0.0000   -0.0000    0.0000    0.0005    0.0029    0.0113    0.0097    0.0101
       95 C9     *011       0.0000   -0.0000   -0.0000    0.0000    0.0002   -0.0003    0.0013    0.0040    0.0035    0.0038
       96 C9     *002       0.0000    0.0000   -0.0000   -0.0000   -0.0005    0.0017   -0.0016   -0.0053   -0.0046   -0.0040
       97 H10    1s        -0.0001    0.0001   -0.0000    0.0000   -0.0004    0.0011    0.0187    0.0578    0.0493    0.0713
       98 H10    *s        -0.0009    0.0005   -0.0001    0.0000    0.0011   -0.0010    0.0081    0.0097    0.0017    0.0207

          Orbital           11        12        13        14        15        16        17        18        19        20    
          Energy           -0.7555   -0.7184   -0.6831   -0.6428   -0.5713   -0.4874   -0.4141   -0.4053   -0.3881   -0.3273
          Occ. No.          2.0000    2.0000    2.0000    2.0000    2.0000    2.0000    2.0000    2.0000    2.0000    2.0000

        1 C1     1s        -0.0595    0.0527   -0.0130    0.0075    0.0198    0.0002   -0.0003   -0.0029   -0.0019    0.0001
        2 C1     2s         0.1202   -0.1149    0.0382   -0.0090   -0.0333   -0.0003    0.0000    0.0086    0.0068   -0.0000
        3 C1     *s         0.0906    0.0280   -0.0755   -0.0656   -0.1160    0.0015   -0.0002   -0.0044    0.0302    0.0115
        4 C1     2px       -0.0874    0.1929   -0.1967   -0.1045   -0.0667   -0.0409    0.0831   -0.0902    0.2292   -0.0775
        5 C1     *px       -0.0525    0.1362   -0.1162   -0.0643   -0.0493   -0.0241    0.0559   -0.0726    0.1673   -0.0550
        6 C1     2py        0.0771   -0.1699    0.2022    0.0443    0.0858   -0.0126    0.0318   -0.1238    0.2647   -0.0250
        7 C1     *py        0.0449   -0.1197    0.1193    0.0313    0.0619   -0.0082    0.0219   -0.0807    0.1765   -0.0232
        8 C1     2pz       -0.0204    0.0450   -0.0428   -0.0287   -0.0115    0.1365   -0.2446   -0.0497    0.1018    0.2485
        9 C1     *pz       -0.0126    0.0315   -0.0251   -0.0171   -0.0090    0.0828   -0.1641   -0.0373    0.0725    0.1932
       10 C1     *200       0.0045   -0.0059    0.0058   -0.0009    0.0018   -0.0027    0.0043   -0.0044    0.0104   -0.0028
       11 C1     *110      -0.0140    0.0158   -0.0088   -0.0021    0.0012    0.0017   -0.0027   -0.0011    0.0024    0.0019
       12 C1     *101       0.0032   -0.0035    0.0028   -0.0012    0.0005    0.0079   -0.0112   -0.0037    0.0069    0.0079
       13 C1     *020       0.0036   -0.0054    0.0029    0.0038   -0.0004    0.0006   -0.0014    0.0050   -0.0114    0.0007
       14 C1     *011      -0.0031    0.0034   -0.0020   -0.0001    0.0000   -0.0083    0.0122    0.0009   -0.0014   -0.0081
       15 C1     *002      -0.0025    0.0018    0.0002    0.0004    0.0014    0.0021   -0.0030   -0.0002    0.0015    0.0021
       16 C2     1s         0.0588   -0.0638    0.0178   -0.0120   -0.0399    0.0018   -0.0006    0.0007    0.0005    0.0001
       17 C2     2s        -0.1228    0.1262   -0.0288    0.0277    0.0887   -0.0035    0.0005    0.0022    0.0028    0.0002
       18 C2     *s        -0.0602    0.0126    0.0668    0.0780    0.1122   -0.0082    0.0066   -0.0061   -0.0049   -0.0034
       19 C2     2px       -0.0749   -0.0253    0.1860    0.0528    0.1784   -0.0676    0.1002   -0.1016    0.2154   -0.0618
       20 C2     *px       -0.0311    0.1105   -0.0551   -0.0375   -0.0284   -0.0348    0.0607   -0.0766    0.1726   -0.0363
       21 C2     2py        0.0643    0.0434   -0.1295   -0.1599   -0.1203   -0.0108    0.0276   -0.1049    0.2691   -0.0137
       22 C2     *py        0.0306   -0.1021    0.0640   -0.0031    0.0336   -0.0078    0.0205   -0.0762    0.1486   -0.0231
       23 C2     2pz       -0.0210   -0.0054    0.0539    0.0063    0.0536    0.1937   -0.2712   -0.0522    0.0969    0.1779
       24 C2     *pz       -0.0079    0.0300   -0.0140   -0.0131   -0.0064    0.1094   -0.1710   -0.0375    0.0721    0.1443
       25 C2     *200      -0.0028    0.0023    0.0014   -0.0024    0.0022   -0.0006   -0.0032    0.0060   -0.0108    0.0063
       26 C2     *110       0.0105   -0.0095    0.0018   -0.0017   -0.0051    0.0005    0.0014   -0.0007   -0.0042   -0.0041
       27 C2     *101      -0.0030    0.0032    0.0003   -0.0018    0.0017    0.0005    0.0084    0.0041   -0.0079   -0.0171
       28 C2     *020      -0.0024    0.0006   -0.0004    0.0034   -0.0000   -0.0002    0.0011   -0.0059    0.0125   -0.0013
       29 C2     *011       0.0029   -0.0026    0.0004   -0.0003   -0.0017    0.0002   -0.0074   -0.0016    0.0010    0.0166
       30 C2     *002       0.0022   -0.0028    0.0015   -0.0005   -0.0004    0.0007    0.0021    0.0010   -0.0008   -0.0051
       31 H3     1s         0.1210   -0.1946    0.1729    0.0558    0.0438   -0.0006    0.0003   -0.0020   -0.0002    0.0000
       32 H3     *s         0.0525   -0.0832    0.0873    0.0294    0.0253   -0.0005    0.0008   -0.0053    0.0025    0.0011
       33 C4     1s        -0.0135    0.0377   -0.0057    0.0081    0.0166    0.0009    0.0000   -0.0165   -0.0093   -0.0005
       34 C4     2s         0.0260   -0.0723    0.0086   -0.0216   -0.0351   -0.0016   -0.0001    0.0369    0.0188    0.0014
       35 C4     *s         0.0304   -0.1527    0.0783    0.0602    0.0274   -0.0060    0.0019    0.0571    0.0395   -0.0081
       36 C4     2px        0.1483   -0.0218   -0.0547   -0.3252   -0.0580   -0.0938    0.0321    0.0827   -0.0142    0.0914
       37 C4     *px        0.0454    0.0424   -0.0405   -0.1245   -0.0510   -0.0629    0.0223    0.0446    0.0295    0.0874
       38 C4     2py       -0.1279    0.1214    0.2198   -0.1573    0.2868   -0.0160    0.0005    0.0613   -0.0397    0.0126
       39 C4     *py       -0.0496    0.0154    0.1157   -0.0554    0.2186   -0.0128    0.0021    0.0280   -0.0510    0.0043
       40 C4     2pz        0.0503   -0.0023   -0.0111   -0.1295   -0.0023    0.2519   -0.0925    0.0310   -0.0090   -0.2461
       41 C4     *pz        0.0149    0.0168   -0.0106   -0.0492   -0.0065    0.1673   -0.0674    0.0160    0.0076   -0.2141
       42 C4     *200       0.0010    0.0005    0.0012   -0.0034    0.0064   -0.0038   -0.0033    0.0038   -0.0080    0.0077
       43 C4     *110       0.0082   -0.0050   -0.0056   -0.0089   -0.0257   -0.0036    0.0019    0.0020   -0.0001    0.0009
       44 C4     *101       0.0015   -0.0011    0.0010   -0.0027    0.0037    0.0069    0.0071    0.0031   -0.0059   -0.0167
       45 C4     *020      -0.0008   -0.0050   -0.0018    0.0110   -0.0104   -0.0003    0.0008   -0.0069    0.0097   -0.0001
       46 C4     *011       0.0027   -0.0022   -0.0018   -0.0026   -0.0100    0.0101   -0.0062   -0.0000    0.0010   -0.0004
       47 C4     *002       0.0003    0.0013   -0.0005   -0.0015    0.0010    0.0042    0.0025    0.0008   -0.0014   -0.0076
       48 C5     1s        -0.0295   -0.0279    0.0072    0.0112   -0.0161    0.0006    0.0004   -0.0069    0.0174   -0.0001
       49 C5     2s         0.0565    0.0521   -0.0147   -0.0275    0.0334   -0.0013   -0.0010    0.0169   -0.0374   -0.0005
       50 C5     *s         0.0955    0.1545    0.0052    0.0470   -0.0276    0.0006   -0.0018    0.0242   -0.0646    0.0063
       51 C5     2px       -0.0449    0.0605   -0.0780    0.3461    0.0969   -0.1048   -0.0136   -0.1003    0.0349    0.1044
       52 C5     *px        0.0066    0.0491   -0.0328    0.1339    0.0623   -0.0697   -0.0114   -0.0387    0.0323    0.0912
       53 C5     2py       -0.1904    0.0644    0.2341    0.0475   -0.2800   -0.0047   -0.0021    0.0269    0.0148    0.0074
       54 C5     *py       -0.0441    0.0818    0.1033    0.0237   -0.2161   -0.0016   -0.0032    0.0415    0.0459    0.0125
       55 C5     2pz       -0.0251    0.0275   -0.0233    0.1423    0.0358    0.2524    0.0437   -0.0379    0.0119   -0.2499
       56 C5     *pz        0.0011    0.0234   -0.0094    0.0555    0.0210    0.1681    0.0295   -0.0131    0.0128   -0.2191
       57 C5     *200       0.0041   -0.0002   -0.0024   -0.0043    0.0079    0.0047   -0.0028    0.0038    0.0017   -0.0065
       58 C5     *110      -0.0038   -0.0031    0.0077   -0.0060   -0.0273   -0.0009   -0.0047    0.0157    0.0066   -0.0046
       59 C5     *101       0.0041    0.0010   -0.0019   -0.0030    0.0055   -0.0105    0.0054    0.0036    0.0014    0.0139
       60 C5     *020      -0.0024    0.0039    0.0002    0.0113   -0.0049   -0.0001   -0.0001   -0.0074   -0.0011   -0.0004
       61 C5     *011      -0.0018   -0.0008    0.0034   -0.0017   -0.0115    0.0051    0.0095    0.0063    0.0025    0.0083
       62 C5     *002      -0.0000   -0.0014   -0.0004   -0.0013    0.0003   -0.0047    0.0030    0.0012    0.0005    0.0069
       63 H6     1s         0.0539   -0.0961   -0.1056    0.1341   -0.1952    0.0036    0.0032   -0.0500    0.0590   -0.0023
       64 H6     *s         0.0260   -0.0530   -0.0579    0.0944   -0.1260    0.0020    0.0039   -0.0611    0.0552   -0.0033
       65 C7     1s         0.0791    0.0385   -0.0032   -0.0184    0.0396   -0.0010   -0.0002   -0.0034   -0.0022    0.0003
       66 C7     2s        -0.1593   -0.0676    0.0138    0.0414   -0.0890    0.0022    0.0003    0.0070   -0.0006   -0.0007
       67 C7     *s        -0.0627    0.0432    0.0556    0.0882   -0.1098    0.0025   -0.0005    0.0125    0.0087    0.0002
       68 C7     2px        0.0193   -0.0428   -0.0822    0.0373    0.0914   -0.0886   -0.1178    0.3062    0.1628   -0.0615
       69 C7     *px        0.0228    0.0357   -0.0065    0.0305   -0.0043   -0.0472   -0.0742    0.2096    0.1057   -0.0456
       70 C7     2py        0.0323   -0.1768   -0.1668   -0.1649    0.1916   -0.0102   -0.0068   -0.0968   -0.0656   -0.0036
       71 C7     *py        0.0962    0.1437    0.0193    0.0149   -0.0439   -0.0024   -0.0074   -0.0313   -0.0108    0.0044
       72 C7     2pz        0.0091   -0.0229   -0.0389    0.0095    0.0466    0.2142    0.2653    0.1331    0.0584    0.1510
       73 C7     *pz        0.0123    0.0193   -0.0019    0.0128   -0.0019    0.1182    0.1637    0.0916    0.0397    0.1182
       74 C7     *200       0.0033    0.0025    0.0013   -0.0017    0.0003    0.0004   -0.0017    0.0050    0.0030   -0.0026
       75 C7     *110      -0.0068   -0.0026    0.0029   -0.0028   -0.0045   -0.0005   -0.0065    0.0220    0.0089   -0.0097
       76 C7     *101      -0.0010   -0.0004    0.0008   -0.0013   -0.0004   -0.0009    0.0030    0.0048    0.0029    0.0051
       77 C7     *020      -0.0090   -0.0020    0.0010    0.0035   -0.0032    0.0001   -0.0003   -0.0058   -0.0043   -0.0008
       78 C7     *011      -0.0036   -0.0013    0.0013   -0.0008   -0.0022    0.0016    0.0138    0.0092    0.0031    0.0228
       79 C7     *002       0.0040    0.0027    0.0007   -0.0006    0.0003   -0.0004    0.0019    0.0013    0.0002    0.0034
       80 H8     1s         0.0774    0.0265   -0.1333    0.1207    0.2008   -0.0033    0.0025   -0.0782   -0.0160    0.0019
       81 H8     *s         0.0379    0.0158   -0.0771    0.0856    0.1330   -0.0031    0.0029   -0.0849   -0.0056    0.0039
       82 C9     1s        -0.0721   -0.0256    0.0054    0.0115   -0.0211    0.0004    0.0001    0.0008    0.0042   -0.0000
       83 C9     2s         0.1520    0.0672   -0.0007   -0.0164    0.0345   -0.0007   -0.0004   -0.0023   -0.0135    0.0001
       84 C9     *s         0.0537   -0.1067   -0.0526   -0.0740    0.1196   -0.0028    0.0032   -0.0281   -0.0177   -0.0067
       85 C9     2px        0.0598    0.0670    0.0192    0.0581    0.0007   -0.0642   -0.1116    0.3168    0.1705   -0.0894
       86 C9     *px        0.0320    0.0386    0.0059    0.0313   -0.0002   -0.0377   -0.0738    0.2163    0.1090   -0.0671
       87 C9     2py        0.2356    0.2909    0.1680    0.0800   -0.1009   -0.0035   -0.0049   -0.0868   -0.0343   -0.0065
       88 C9     *py        0.1219    0.1719    0.0719    0.0474   -0.0684   -0.0015   -0.0054   -0.0470   -0.0258   -0.0014
       89 C9     2pz        0.0316    0.0362    0.0129    0.0258   -0.0009    0.1583    0.2503    0.1371    0.0629    0.2181
       90 C9     *pz        0.0167    0.0208    0.0045    0.0140   -0.0010    0.0934    0.1631    0.0935    0.0401    0.1658
       91 C9     *200      -0.0031   -0.0004    0.0012   -0.0002   -0.0019    0.0012    0.0015   -0.0041   -0.0023    0.0008
       92 C9     *110       0.0086    0.0058    0.0037   -0.0041   -0.0019    0.0054    0.0073   -0.0181   -0.0096    0.0039
       93 C9     *101       0.0009    0.0007    0.0007   -0.0009   -0.0005   -0.0022   -0.0024   -0.0041   -0.0016   -0.0016
       94 C9     *020       0.0158    0.0106    0.0027    0.0021    0.0011    0.0004    0.0004    0.0052    0.0025    0.0003
       95 C9     *011       0.0047    0.0031    0.0017   -0.0016   -0.0008   -0.0129   -0.0163   -0.0078   -0.0034   -0.0092
       96 C9     *002      -0.0036   -0.0009    0.0006    0.0006   -0.0016   -0.0015   -0.0018   -0.0009   -0.0010   -0.0011
       97 H10    1s         0.2052    0.1934    0.0908    0.0424   -0.0364    0.0004    0.0001    0.0004    0.0011   -0.0001
       98 H10    *s         0.0907    0.0878    0.0527    0.0234   -0.0219    0.0002    0.0008   -0.0029    0.0038   -0.0010

          Orbital           21        22        23        24        25        26        27        28        29        30    
          Energy            0.0964    0.1933    0.2387    0.2571    0.2696    0.2868    0.2971    0.3107    0.3545    0.4062
          Occ. No.          0.0000    0.0000    0.0000    0.0000    0.0000    0.0000    0.0000    0.0000    0.0000    0.0000

        1 C1     1s        -0.0003    0.0050   -0.0052    0.0255    0.0923   -0.0014    0.0007   -0.0081   -0.0004   -0.0263
        2 C1     2s         0.0004   -0.0193    0.0102   -0.0529   -0.1813    0.0001   -0.0035    0.0212    0.0131    0.1460
        3 C1     *s        -0.0427    0.1559    0.3879    0.2540    0.9492    0.2041    0.1450    1.2056   -0.1098   -0.7310
        4 C1     2px        0.0651   -0.1479   -0.1206   -0.0380    0.1612   -0.0106    0.0743    0.0455    0.0601    0.1296
        5 C1     *px        0.0764   -0.1939   -0.1669    0.3518    2.1619    0.0538    0.3434    0.6345    0.2125   -0.0200
        6 C1     2py        0.0236   -0.1640   -0.1635   -0.0512   -0.1248   -0.0210    0.0715   -0.0546   -0.0099   -0.1172
        7 C1     *py        0.0601   -0.4398   -0.5072   -0.5593   -1.9273   -0.1480    0.1731   -0.7060   -0.0009   -0.1101
        8 C1     2pz       -0.2011   -0.0627   -0.0645    0.2096   -0.0153   -0.0056    0.0288    0.0070   -0.1078    0.0439
        9 C1     *pz       -0.3184   -0.1026   -0.1315    0.6870    0.3405    0.0013    0.1201    0.1255   -0.4832    0.0765
       10 C1     *200      -0.0022    0.0095    0.0104    0.0085    0.0055    0.0020   -0.0074    0.0001   -0.0064    0.0067
       11 C1     *110       0.0015    0.0018    0.0032   -0.0111   -0.0236   -0.0004   -0.0022   -0.0021    0.0049    0.0029
       12 C1     *101       0.0056    0.0069    0.0075   -0.0154    0.0104    0.0014   -0.0045   -0.0001    0.0199   -0.0024
       13 C1     *020       0.0005   -0.0101   -0.0121   -0.0004    0.0062   -0.0017    0.0076    0.0020    0.0019   -0.0011
       14 C1     *011      -0.0058   -0.0010   -0.0022    0.0158   -0.0101   -0.0004    0.0007   -0.0007   -0.0201    0.0036
       15 C1     *002       0.0016    0.0001    0.0018   -0.0061   -0.0041    0.0000   -0.0010    0.0004    0.0056    0.0038
       16 C2     1s        -0.0003   -0.0019   -0.0018   -0.0154   -0.0450    0.0023    0.0039    0.0257    0.0085    0.0853
       17 C2     2s         0.0014   -0.0111    0.0237    0.0432    0.1460   -0.0069   -0.0128   -0.0167    0.0016   -0.0133
       18 C2     *s         0.0259   -0.0118   -0.0378   -0.5130   -1.9516   -0.0876   -0.0639   -0.5073   -0.2083   -1.5919
       19 C2     2px       -0.0313    0.1415    0.1583    0.0821   -0.0835    0.0153   -0.1011   -0.0812   -0.1020   -0.0951
       20 C2     *px       -0.0942    0.3977    0.6233    0.6426    1.6619    0.2159   -0.1439    1.2211   -0.2858   -0.8203
       21 C2     2py       -0.0132    0.1652    0.1803    0.0370    0.0474    0.0344   -0.0941    0.0382    0.0028    0.1986
       22 C2     *py        0.0188    0.1184    0.0654   -0.3534   -1.6290   -0.0914   -0.4953   -0.8369    0.0124    0.8868
       23 C2     2pz        0.1041    0.0601    0.0821   -0.2619    0.0408    0.0083   -0.0389   -0.0171    0.2550   -0.0605
       24 C2     *pz        0.1493    0.1432    0.2488   -0.4932    0.6084    0.0690   -0.0811    0.3589    0.5838   -0.3323
       25 C2     *200      -0.0069    0.0106    0.0107    0.0020   -0.0057    0.0005   -0.0013    0.0054    0.0016    0.0086
       26 C2     *110       0.0060    0.0076   -0.0062    0.0044    0.0190    0.0001   -0.0020   -0.0127   -0.0036   -0.0198
       27 C2     *101       0.0177    0.0084    0.0066   -0.0119   -0.0014    0.0007    0.0001    0.0029   -0.0002    0.0054
       28 C2     *020       0.0020   -0.0123   -0.0092   -0.0024   -0.0029   -0.0008    0.0016    0.0031    0.0005    0.0062
       29 C2     *011      -0.0228    0.0005   -0.0046    0.0107    0.0013   -0.0001   -0.0003   -0.0043    0.0031   -0.0061
       30 C2     *002       0.0051    0.0005    0.0024   -0.0014    0.0056   -0.0003   -0.0014    0.0011   -0.0005   -0.0008
       31 H3     1s        -0.0024    0.0042   -0.0020    0.0251    0.0721   -0.0001   -0.0001   -0.0023   -0.0064   -0.0317
       32 H3     *s        -0.0189    0.0794    0.0327    0.7172    2.8649    0.0511    0.1058    0.4812    0.1438    0.3942
       33 C4     1s         0.0004    0.0429   -0.0347    0.0093    0.0250    0.0007    0.0282   -0.0814   -0.0027   -0.0668
       34 C4     2s        -0.0012   -0.0648    0.0764   -0.0121   -0.0083   -0.0105    0.0102    0.1597    0.0053    0.0839
       35 C4     *s         0.0304   -0.7089    0.3863   -0.3239   -1.2846    0.0033   -0.8677    0.5409    0.0435    1.7145
       36 C4     2px       -0.1066   -0.0045    0.0522   -0.0164    0.0595   -0.0252    0.0985   -0.0652    0.0690   -0.1478
       37 C4     *px       -0.1728    0.2115    0.4960    0.0461    0.5156    0.0884    0.3369    0.4240    0.1616   -0.8881
       38 C4     2py       -0.0109    0.0727    0.0222   -0.0211   -0.0447   -0.0068    0.1985   -0.1549    0.0452    0.1646
       39 C4     *py        0.0017    0.2406   -0.2439   -0.0898   -0.5298   -0.1403    0.4155   -1.8584    0.1972    0.7493
       40 C4     2pz        0.2715    0.0042    0.0152    0.1269   -0.0040   -0.0108    0.0433   -0.0399   -0.2286   -0.0145
       41 C4     *pz        0.4315    0.0958    0.1675    0.2861    0.1253    0.0228    0.1421    0.0631   -0.6874   -0.1801
       42 C4     *200       0.0085   -0.0128   -0.0105   -0.0087    0.0018   -0.0032    0.0055   -0.0068   -0.0027   -0.0044
       43 C4     *110       0.0008    0.0045   -0.0080    0.0042   -0.0024    0.0028    0.0083    0.0106   -0.0037    0.0366
       44 C4     *101      -0.0179   -0.0096   -0.0104    0.0191   -0.0080   -0.0018    0.0021   -0.0052    0.0029   -0.0032
       45 C4     *020      -0.0001    0.0178    0.0100    0.0008   -0.0022    0.0012   -0.0057   -0.0005   -0.0009    0.0054
       46 C4     *011       0.0004    0.0031   -0.0012   -0.0194    0.0042    0.0012    0.0023    0.0030    0.0191    0.0107
       47 C4     *002      -0.0081   -0.0017   -0.0005    0.0073   -0.0006   -0.0007    0.0034    0.0022    0.0038    0.0016
       48 C5     1s        -0.0010    0.0446    0.0264   -0.0024   -0.0056   -0.0339    0.0473    0.0712   -0.0100   -0.0618
       49 C5     2s         0.0033   -0.0656   -0.0737    0.0088    0.0051    0.0145   -0.0388   -0.1535    0.0113    0.0763
       50 C5     *s        -0.0138   -0.7825   -0.1811    0.0132    0.2260    1.6521   -0.7601   -0.2765    0.2029    1.6148
       51 C5     2px        0.1122   -0.0159    0.0676   -0.0302    0.0096    0.0568   -0.1959   -0.0893   -0.0772    0.0564
       52 C5     *px        0.1843   -0.2435    0.4023   -0.0287    0.0525    0.4238   -0.4982   -0.3837   -0.2046    0.5885
       53 C5     2py        0.0096    0.0729   -0.0429   -0.0149   -0.0240    0.0376    0.1367    0.0772    0.0047    0.2045
       54 C5     *py       -0.0006    0.0896    0.3855   -0.0375    0.1341    0.6811    0.7778    1.7169   -0.0373    1.1441
       55 C5     2pz       -0.2764   -0.0075    0.0224    0.0746   -0.0325    0.0258   -0.0746   -0.0148    0.2383    0.0016
       56 C5     *pz       -0.4361   -0.1045    0.1696    0.1543   -0.0482    0.2054   -0.1763   -0.0505    0.7104    0.1776
       57 C5     *200       0.0069   -0.0017    0.0081    0.0054   -0.0013    0.0006    0.0069   -0.0009   -0.0031    0.0135
       58 C5     *110       0.0048   -0.0242    0.0205    0.0141    0.0010   -0.0013    0.0088    0.0073    0.0025   -0.0248
       59 C5     *101      -0.0149   -0.0029    0.0095   -0.0099    0.0026    0.0023    0.0050    0.0020    0.0106    0.0063
       60 C5     *020       0.0003    0.0058   -0.0086    0.0013    0.0022    0.0016   -0.0050    0.0083   -0.0014   -0.0140
       61 C5     *011      -0.0096   -0.0096    0.0093   -0.0247    0.0093   -0.0002    0.0031    0.0015   -0.0179   -0.0103
       62 C5     *002      -0.0073   -0.0007   -0.0002   -0.0059    0.0013   -0.0018    0.0026   -0.0029    0.0043    0.0029
       63 H6     1s         0.0005    0.0825    0.0359    0.0052    0.0043    0.0143   -0.0323   -0.0059    0.0009    0.0703
       64 H6     *s         0.0039    0.8114   -0.1393    0.0559   -0.0166   -0.0112    1.0805   -2.0803    0.1556    0.1472
       65 C7     1s         0.0003    0.0023   -0.0049   -0.0015   -0.0037    0.0410    0.0017   -0.0215    0.0088    0.0798
       66 C7     2s        -0.0002   -0.0221   -0.0191    0.0020    0.0117   -0.1409   -0.0278    0.0166   -0.0008   -0.0142
       67 C7     *s        -0.0067   -0.0872    0.1382    0.0252    0.1006    3.0068    0.5408    0.5895   -0.1633   -1.3085
       68 C7     2px        0.0360   -0.1410    0.2472    0.1075   -0.0258   -0.0308    0.1259   -0.0751    0.1175   -0.0010
       69 C7     *px        0.0524   -0.3206    0.6083    0.2493    0.0048    0.6425    0.6759    0.4854    0.2782    0.3223
       70 C7     2py        0.0037    0.0448   -0.0833   -0.0024   -0.0171   -0.0579   -0.0606   -0.0589    0.0359    0.2247
       71 C7     *py       -0.0152   -0.2000    0.3145    0.0071    0.2404    2.9793    0.4697    1.4418    0.0693    1.4182
       72 C7     2pz       -0.0877   -0.0582    0.1064   -0.2171    0.0687   -0.0158    0.0486   -0.0623   -0.2768    0.0443
       73 C7     *pz       -0.1480   -0.1429    0.2792   -0.5480    0.2103    0.3529    0.2908    0.1731   -0.6845    0.2643
       74 C7     *200      -0.0020    0.0065   -0.0037   -0.0020    0.0007   -0.0049   -0.0018    0.0010   -0.0003   -0.0018
       75 C7     *110      -0.0118    0.0139   -0.0255   -0.0075    0.0007    0.0088   -0.0056   -0.0070    0.0017    0.0080
       76 C7     *101       0.0036    0.0069   -0.0032    0.0034   -0.0015    0.0007    0.0002    0.0009    0.0004    0.0009
       77 C7     *020      -0.0009   -0.0083    0.0004   -0.0001    0.0001    0.0142    0.0002   -0.0092    0.0021    0.0148
       78 C7     *011       0.0289    0.0057   -0.0109    0.0150   -0.0044    0.0047   -0.0022   -0.0028   -0.0009    0.0053
       79 C7     *002       0.0030    0.0001   -0.0022    0.0023    0.0001   -0.0053   -0.0018    0.0001    0.0002   -0.0017
       80 H8     1s        -0.0026    0.0708   -0.0533   -0.0087   -0.0099   -0.0053   -0.0329    0.0202    0.0108    0.0650
       81 H8     *s        -0.0130    0.7572   -0.1408   -0.0980   -0.1259   -0.3271    1.4966    1.7368   -0.1263    0.0797
       82 C9     1s        -0.0001    0.0035    0.0080    0.0010    0.0024   -0.0863   -0.0101    0.0056   -0.0022   -0.0245
       83 C9     2s         0.0002   -0.0201   -0.0209   -0.0025   -0.0019    0.1867    0.0161   -0.0162    0.0146    0.1483
       84 C9     *s         0.0188    0.2433   -0.4573   -0.0123   -0.2507   -1.6429   -0.3906   -1.2406   -0.0359   -1.0523
       85 C9     2px       -0.0760    0.1642   -0.2056   -0.0871    0.0206    0.0598   -0.0989    0.0316   -0.0566   -0.0476
       86 C9     *px       -0.1201    0.2965   -0.4849   -0.2463    0.0859    0.8798   -0.2533    0.2124   -0.2419    0.0751
       87 C9     2py       -0.0059   -0.0373    0.0779   -0.0012    0.0072    0.1835    0.0780    0.0556   -0.0242   -0.1570
       88 C9     *py       -0.0193   -0.2638    0.3593   -0.0080    0.1445    3.6211    0.7870    0.9639   -0.0777    0.1208
       89 C9     2pz        0.1847    0.0690   -0.0883    0.1835   -0.0536    0.0312   -0.0377    0.0327    0.1213   -0.0336
       90 C9     *pz        0.2883    0.1191   -0.2075    0.5206   -0.1477    0.4701   -0.0789    0.1791    0.5749   -0.0391
       91 C9     *200      -0.0009    0.0031   -0.0058   -0.0027    0.0008    0.0057   -0.0033    0.0012   -0.0025    0.0050
       92 C9     *110      -0.0034    0.0134   -0.0226   -0.0112    0.0024   -0.0090   -0.0154    0.0050   -0.0131    0.0039
       93 C9     *101       0.0016    0.0042   -0.0048    0.0041   -0.0014   -0.0009   -0.0033    0.0023    0.0055   -0.0006
       94 C9     *020      -0.0002   -0.0036    0.0072   -0.0003   -0.0001   -0.0181    0.0014   -0.0036   -0.0006    0.0018
       95 C9     *011       0.0082    0.0055   -0.0095    0.0222   -0.0073   -0.0050   -0.0061    0.0051    0.0321   -0.0031
       96 C9     *002       0.0011   -0.0005   -0.0022    0.0029   -0.0008    0.0062   -0.0004    0.0002    0.0044    0.0043
       97 H10    1s         0.0001    0.0017    0.0027    0.0005    0.0008   -0.0431   -0.0036    0.0021   -0.0022   -0.0259
       98 H10    *s         0.0033    0.0787   -0.0267    0.0078   -0.0375   -3.5063   -0.6103   -0.5546    0.0841    0.3281

          Orbital           31        32    
          Energy            0.5717    0.5898
          Occ. No.          0.0000    0.0000

        1 C1     1s         0.0672   -0.0007
        2 C1     2s        -0.1981   -0.1626
        3 C1     *s        -2.4687   -2.1776
        4 C1     2px       -0.1354   -0.0327
        5 C1     *px       -1.6118   -0.8341
        6 C1     2py        0.1737   -0.0219
        7 C1     *py        1.1862    0.6186
        8 C1     2pz       -0.0257   -0.0232
        9 C1     *pz       -0.4405   -0.1882
       10 C1     *200       0.0062   -0.0093
       11 C1     *110      -0.0114    0.0094
       12 C1     *101       0.0103    0.0005
       13 C1     *020      -0.0103   -0.0119
       14 C1     *011      -0.0057    0.0019
       15 C1     *002      -0.0072   -0.0082
       16 C2     1s        -0.0990    0.0317
       17 C2     2s        -0.1716   -0.4251
       18 C2     *s         3.6782    0.0211
       19 C2     2px        0.1042   -0.0964
       20 C2     *px       -1.0426   -1.9516
       21 C2     2py        0.0549    0.0608
       22 C2     *py        1.4288    2.2639
       23 C2     2pz        0.0512   -0.0274
       24 C2     *pz       -0.1914   -0.5063
       25 C2     *200      -0.0262   -0.0272
       26 C2     *110       0.0513    0.0307
       27 C2     *101      -0.0146   -0.0017
       28 C2     *020      -0.0183   -0.0245
       29 C2     *011       0.0158    0.0105
       30 C2     *002      -0.0011   -0.0219
       31 H3     1s         0.1102   -0.0961
       32 H3     *s        -0.9286   -0.0951
       33 C4     1s         0.0726   -0.0225
       34 C4     2s        -0.2386   -0.1458
       35 C4     *s        -0.5427    1.2569
       36 C4     2px        0.2186    0.0883
       37 C4     *px       -1.0012   -2.4285
       38 C4     2py       -0.3119   -0.0633
       39 C4     *py       -1.1825    1.2075
       40 C4     2pz        0.0586    0.0309
       41 C4     *pz       -0.4769   -0.8524
       42 C4     *200      -0.0097    0.0007
       43 C4     *110       0.0087    0.0192
       44 C4     *101      -0.0009    0.0033
       45 C4     *020       0.0003   -0.0174
       46 C4     *011       0.0073    0.0057
       47 C4     *002      -0.0114   -0.0024
       48 C5     1s        -0.0847    0.0025
       49 C5     2s         0.0824   -0.2624
       50 C5     *s         2.4109    2.0712
       51 C5     2px       -0.0673   -0.1727
       52 C5     *px       -0.9211   -0.4163
       53 C5     2py        0.1925   -0.3921
       54 C5     *py        1.5722   -0.3552
       55 C5     2pz       -0.0276   -0.0884
       56 C5     *pz       -0.2845   -0.1902
       57 C5     *200       0.0065   -0.0013
       58 C5     *110       0.0167   -0.0084
       59 C5     *101       0.0030    0.0074
       60 C5     *020      -0.0053   -0.0125
       61 C5     *011       0.0069   -0.0045
       62 C5     *002       0.0053   -0.0100
       63 H6     1s         0.0765   -0.0269
       64 H6     *s        -0.9391    0.1691
       65 C7     1s         0.0755   -0.0557
       66 C7     2s        -0.0599   -0.4251
       67 C7     *s        -1.8582    2.3988
       68 C7     2px        0.1692    0.0528
       69 C7     *px        0.5704    0.3439
       70 C7     2py        0.0887   -0.0817
       71 C7     *py        0.9254    1.2414
       72 C7     2pz        0.0561    0.0181
       73 C7     *pz        0.2627    0.1815
       74 C7     *200      -0.0043   -0.0072
       75 C7     *110       0.0171   -0.0176
       76 C7     *101       0.0044    0.0011
       77 C7     *020       0.0081   -0.0646
       78 C7     *011       0.0079   -0.0105
       79 C7     *002      -0.0090   -0.0098
       80 H8     1s        -0.0574    0.0924
       81 H8     *s         0.9616   -0.2535
       82 C9     1s        -0.0357    0.0348
       83 C9     2s         0.0956   -0.3651
       84 C9     *s        -0.2704   -1.4431
       85 C9     2px        0.0481    0.1124
       86 C9     *px       -0.3308    0.0965
       87 C9     2py       -0.1524    0.1579
       88 C9     *py       -0.1457    0.9451
       89 C9     2pz        0.0110    0.0493
       90 C9     *pz       -0.1287    0.0677
       91 C9     *200      -0.0010   -0.0157
       92 C9     *110      -0.0199   -0.0053
       93 C9     *101      -0.0029   -0.0006
       94 C9     *020       0.0011   -0.0108
       95 C9     *011      -0.0065   -0.0018
       96 C9     *002       0.0016   -0.0155
       97 H10    1s        -0.0747   -0.0557
       98 H10    *s         0.3179   -0.2982
--


++    Molecular charges:
      ------------------

      Mulliken charges per centre and basis function type
      ---------------------------------------------------

                C1      C2      H3      C4      C5      H6      C7      H8      C9      H10   
      1s       1.9965  1.9966  0.4999  1.9966  1.9966  0.5198  1.9966  0.5183  1.9966  0.5293
      2s       0.6684  0.6739  0.0000  0.6670  0.6664  0.0000  0.6729  0.0000  0.6771  0.0000
      2px      0.6850  0.6860  0.0000  0.7097  0.7282  0.0000  0.5976  0.0000  0.5945  0.0000
      2pz      0.5648  0.5820  0.0000  0.5613  0.5616  0.0000  0.5898  0.0000  0.5748  0.0000
      2py      0.6697  0.6696  0.0000  0.7156  0.6947  0.0000  0.7864  0.0000  0.8101  0.0000
      *s       0.5303  0.4046  0.2027  0.4759  0.4850  0.2484  0.3638  0.2542  0.5839  0.2052
      *px      0.4439  0.2335  0.0000  0.2185  0.2830  0.0000  0.3723  0.0000  0.4246  0.0000
      *pz      0.4369  0.3987  0.0000  0.4243  0.4279  0.0000  0.3897  0.0000  0.4211  0.0000
      *py      0.4231  0.2037  0.0000  0.3438  0.2742  0.0000 -0.0071  0.0000  0.3739  0.0000
      *200     0.0257  0.0182  0.0000  0.0176  0.0201  0.0000 -0.0133  0.0000 -0.0160  0.0000
      *110     0.0112  0.0095  0.0000  0.0146  0.0167  0.0000  0.0134  0.0000  0.0106  0.0000
      *101     0.0052  0.0075  0.0000  0.0081  0.0071  0.0000  0.0011  0.0000  0.0006  0.0000
      *020     0.0189  0.0146  0.0000  0.0294  0.0227  0.0000  0.0464  0.0000  0.0657  0.0000
      *011     0.0046  0.0060  0.0000  0.0038  0.0056  0.0000  0.0133  0.0000  0.0097  0.0000
      *002    -0.0166 -0.0150  0.0000 -0.0133 -0.0124  0.0000 -0.0167  0.0000 -0.0192  0.0000
      Total    6.4676  5.8894  0.7026  6.1730  6.1776  0.7682  5.8063  0.7724  6.5083  0.7345

      N-E     -0.4676  0.1106  0.2974 -0.1730 -0.1776  0.2318  0.1937  0.2276 -0.5083  0.2655

      Total electronic charge=   40.000000

      Total            charge=   -0.000000
--


++    Molecular properties:
      ---------------------

      Charge (e):
                      =   -0.0000
      Dipole Moment (Debye):
      Origin of the operator (Ang)=    0.0000    0.0000    0.0000
                   X= -2.4763E-02               Y= -2.0543E-01               Z=  8.7784E-02           Total=  2.2477E-01
      Quadrupole Moment (Debye*Ang):
      Origin of the operator (Ang)=   -3.3544    0.7418   -0.3587
                  XX= -3.1521E+01              XY= -1.8954E+00              XZ=  1.8548E+00              YY= -2.6133E+01
                  YZ= -4.6775E-02              ZZ= -3.6983E+01
      In traceless form (Debye*Ang)
                  XX=  3.6427E-02              XY= -2.8431E+00              XZ=  2.7822E+00              YY=  8.1188E+00
                  YZ= -7.0163E-02              ZZ= -8.1552E+00
--


      Input file to MOLDEN was generated!

 ###############################################################################
 ###############################################################################
 ###                                                                         ###
 ###                                                                         ###
 ###    WARNING: RunFile label nBas                                          ###
 ###    was used       60 times                                              ###
 ###                                                                         ###
 ###                                                                         ###
 ###############################################################################
 ###############################################################################
--- Stop Module: scf at Tue Jun 25 13:14:29 2024 /rc=_RC_ALL_IS_WELL_ ---
*** files: reactant.scf.molden reactant.ScfOrb xmldump
    saved to directory /home/kenya/molcas_test/0625
--- Module scf spent 3 seconds ---

--- Start Module: mckinley at Tue Jun 25 13:14:29 2024 ---

()()()()()()()()()()()()()()()()()()()()()()()()()()()()()()()()()()()()()()()()()()()()()()()()()()

                                             &MCKINLEY

                                   only a single process is used
                       available to each process: 2.0 GB of memory, 1 thread
                                             pid: 29240
()()()()()()()()()()()()()()()()()()()()()()()()()()()()()()()()()()()()()()()()()()()()()()()()()()


                     Threshold for contributions to the gradient or Hessian: 1.000E-07

 **************************************************************************************************************************
 *                                                                                                                        *
 *                 All data is written to disk, and could be accessed through the MCLR or RASSI program.                  *
 *                                                                                                                        *
 **************************************************************************************************************************
--- Stop Module: mckinley at Tue Jun 25 13:14:47 2024 /rc=_RC_INVOKED_OTHER_MODULE_ ---
*** files: xmldump
    saved to directory /home/kenya/molcas_test/0625
--- Module mckinley spent 17 seconds ---

--- Start Module: mclr at Tue Jun 25 13:14:47 2024 ---

()()()()()()()()()()()()()()()()()()()()()()()()()()()()()()()()()()()()()()()()()()()()()()()()()()

                                               &MCLR

                                   only a single process is used
                       available to each process: 2.0 GB of memory, 1 thread
                                             pid: 29376
()()()()()()()()()()()()()()()()()()()()()()()()()()()()()()()()()()()()()()()()()()()()()()()()()()

 Ordinary integral handling
 OrdInt status: non-squared

++   Wave function specifications:
     -----------------------------
     Wavefunction type:                          SCF
     Number of irreducible symmetry groups       1
     Number of basis functions                  98
     Number of occupied orbitals                20
     SCF energy =                  -229.3751438398
--

     Convergence threshold=               1.0000E-04
     Max number of iterations in PCG:            200

++   Perturbation specifications:
     ----------------------------

     Number of perturbations in each symmetry     33
     Type of perturbation:                         Hessian         
--

++   Perturbations:
     --------------

     -------------------------------------
      No.    Symmetry    Center Direction 
     -------------------------------------
       1       a            C1         x
       2       a            C1         y
       3       a            C1         z
       4       a            C2         x
       5       a            C2         y
       6       a            C2         z
       7       a            H3         x
       8       a            H3         y
       9       a            H3         z
      10       a            C4         x
      11       a            C4         y
      12       a            C4         z
      13       a            C5         x
      14       a            C5         y
      15       a            C5         z
      16       a            H6         x
      17       a            H6         y
      18       a            H6         z
      19       a            C7         x
      20       a            C7         y
      21       a            C7         z
      22       a            H8         x
      23       a            H8         y
      24       a            H8         z
      25       a            C9         x
      26       a            C9         y
      27       a            C9         z
      28       a            H10        x
      29       a            H10        y
      30       a            H10        z
      31       a            MLTPL  1 X
      32       a            MLTPL  1 Y
      33       a            MLTPL  1 Z
     -------------------------------------
--


     Linear response function is computed for Restricted Hartree-Fock wavefunction

 Process perturbation number                     1
      Perturbation no:    1 converged in    9 steps.

 Process perturbation number                     2
      Perturbation no:    2 converged in    9 steps.

 Process perturbation number                     3
      Perturbation no:    3 converged in    8 steps.

 Process perturbation number                     4
      Perturbation no:    4 converged in   10 steps.

 Process perturbation number                     5
      Perturbation no:    5 converged in   10 steps.

 Process perturbation number                     6
      Perturbation no:    6 converged in    9 steps.

 Process perturbation number                     7
      Perturbation no:    7 converged in    8 steps.

 Process perturbation number                     8
      Perturbation no:    8 converged in    8 steps.

 Process perturbation number                     9
      Perturbation no:    9 converged in    8 steps.

 Process perturbation number                    10
      Perturbation no:   10 converged in    9 steps.

 Process perturbation number                    11
      Perturbation no:   11 converged in    9 steps.

 Process perturbation number                    12
      Perturbation no:   12 converged in    9 steps.

 Process perturbation number                    13
      Perturbation no:   13 converged in    9 steps.

 Process perturbation number                    14
      Perturbation no:   14 converged in    9 steps.

 Process perturbation number                    15
      Perturbation no:   15 converged in    8 steps.

 Process perturbation number                    16
      Perturbation no:   16 converged in    8 steps.

 Process perturbation number                    17
      Perturbation no:   17 converged in    9 steps.

 Process perturbation number                    18
      Perturbation no:   18 converged in    8 steps.

 Process perturbation number                    19
      Perturbation no:   19 converged in    9 steps.

 Process perturbation number                    20
      Perturbation no:   20 converged in   10 steps.

 Process perturbation number                    21
      Perturbation no:   21 converged in    9 steps.

 Process perturbation number                    22
      Perturbation no:   22 converged in    8 steps.

 Process perturbation number                    23
      Perturbation no:   23 converged in    9 steps.

 Process perturbation number                    24
      Perturbation no:   24 converged in    8 steps.

 Process perturbation number                    25
      Perturbation no:   25 converged in    9 steps.

 Process perturbation number                    26
      Perturbation no:   26 converged in   10 steps.

 Process perturbation number                    27
      Perturbation no:   27 converged in    9 steps.

 Process perturbation number                    28
      Perturbation no:   28 converged in    7 steps.

 Process perturbation number                    29
      Perturbation no:   29 converged in    8 steps.

 Process perturbation number                    30
      Perturbation no:   30 converged in    7 steps.

 Process perturbation number                    31
      Perturbation no:   31 converged in   12 steps.

 Process perturbation number                    32
      Perturbation no:   32 converged in   12 steps.

 Process perturbation number                    33
      Perturbation no:   33 converged in   12 steps.


      ************************************
      *                                  *
      * Harmonic frequencies in cm-1     *
      * Intensities in km/mole           *
      *                                  *
      * No correction due to curvilinear *
      * representations has been done    *
      *                                  *
      ************************************


    Symmetry a  
   ==============

                        1         2         3         4         5         6

     Frequency:      i564.25   i546.50      0.02      0.04      0.07     57.65                                          

     Intensity:    4.311E+01 4.065E+01 3.483E-10 3.661E-10 1.072E-11 3.590E-01
     Red. mass:      1.05378   1.05014   7.60312   7.60313   7.60314   7.10252

     C1         x    0.00006   0.00364   0.08367  -0.29128   0.09031   0.14086
     C1         y   -0.00008  -0.00151  -0.27772  -0.11146  -0.10221   0.02151
     C1         z    0.00031   0.00110   0.12598  -0.05227  -0.28530  -0.38366
     C2         x    0.00081   0.00889   0.08367  -0.29128   0.09031   0.11056
     C2         y    0.00026   0.00391  -0.27772  -0.11147  -0.10221   0.01370
     C2         z   -0.00133   0.00374   0.12598  -0.05227  -0.28530  -0.29034
     H3         x    0.00031  -0.00183   0.08367  -0.29127   0.09031   0.17015
     H3         y   -0.00021  -0.00780  -0.27773  -0.11146  -0.10221   0.03064
     H3         z   -0.00142  -0.00123   0.12598  -0.05227  -0.28531  -0.47982
     C4         x    0.00062   0.01440   0.08367  -0.29128   0.09031   0.04850
     C4         y    0.00009   0.00734  -0.27772  -0.11147  -0.10221   0.00389
     C4         z   -0.00090   0.00618   0.12598  -0.05227  -0.28530  -0.11585
     C5         x    0.01478   0.02383   0.08367  -0.29128   0.09031  -0.05923
     C5         y    0.00099  -0.01294  -0.27772  -0.11147  -0.10221  -0.00899
     C5         z   -0.03607   0.01016   0.12597  -0.05227  -0.28530   0.15857
     H6         x   -0.00992   0.01046   0.08367  -0.29128   0.09031   0.08126
     H6         y   -0.00086   0.00818  -0.27772  -0.11147  -0.10221   0.00778
     H6         z    0.02631   0.00395   0.12598  -0.05228  -0.28530  -0.20806
     C7         x    0.01961   0.04105   0.08367  -0.29128   0.09031  -0.10597
     C7         y    0.00118  -0.01556  -0.27772  -0.11147  -0.10221  -0.01399
     C7         z   -0.04684   0.01692   0.12597  -0.05227  -0.28530   0.27959
     H8         x    0.01121   0.00359   0.08367  -0.29128   0.09031  -0.10576
[...]
    34 C4     2s         0.0319   -0.0943   -0.0355   -0.0178   -0.2019   -0.0028   -0.0223    0.0021    0.0112    0.0061
    35 C4     *s         0.0197   -0.1804    0.0347    0.0630   -0.1542   -0.0049   -0.0723    0.0013    0.0370    0.0030
    36 C4     2px        0.1460   -0.0647   -0.2166   -0.2375    0.1053   -0.0503   -0.0248    0.0517   -0.0020    0.1241
    37 C4     *px        0.0518    0.0306   -0.0800   -0.1179    0.0307   -0.0250   -0.0227    0.0320    0.0346    0.0963
    38 C4     2py       -0.0308   -0.0520    0.0593    0.0477    0.3724   -0.0061   -0.0247    0.0054   -0.0099    0.0162
    39 C4     *py       -0.0095   -0.0708    0.0219    0.0965    0.2012   -0.0048   -0.0179    0.0036   -0.0189    0.0083
    40 C4     2pz        0.0548   -0.0281   -0.0809   -0.0875    0.0544    0.1310   -0.0141   -0.1319   -0.0045   -0.3279
    41 C4     *pz        0.0196    0.0073   -0.0300   -0.0415    0.0186    0.0663   -0.0120   -0.0826    0.0103   -0.2445
    42 C4     *200       0.0024   -0.0023   -0.0028    0.0019    0.0064   -0.0016   -0.0023   -0.0025   -0.0078    0.0074
    43 C4     *110       0.0043   -0.0008   -0.0053   -0.0228   -0.0140   -0.0025    0.0005    0.0028   -0.0012    0.0016
    44 C4     *101       0.0026   -0.0035   -0.0026    0.0007    0.0003    0.0026   -0.0014    0.0067   -0.0055   -0.0158
    45 C4     *020      -0.0034    0.0000    0.0055    0.0015   -0.0165   -0.0002    0.0039    0.0004    0.0087   -0.0001
    46 C4     *011       0.0012   -0.0004   -0.0014   -0.0084   -0.0066    0.0063    0.0004   -0.0085    0.0004   -0.0019
    47 C4     *002       0.0003    0.0011   -0.0008   -0.0008    0.0053    0.0019   -0.0005    0.0021   -0.0013   -0.0074
    48 C5     1s        -0.0306   -0.0233    0.0076    0.0002   -0.0173    0.0009    0.0035   -0.0004    0.0123   -0.0009
    49 C5     2s         0.0582    0.0421   -0.0193   -0.0036    0.0395   -0.0020   -0.0099    0.0010   -0.0264    0.0014
    50 C5     *s         0.1084    0.1376    0.0664   -0.0183    0.0231   -0.0006   -0.0034    0.0007   -0.0802    0.0057
    51 C5     2px       -0.0754    0.1657    0.1378    0.2931   -0.0373   -0.0675    0.0181    0.0033    0.0273    0.1330
    52 C5     *px       -0.0005    0.0811    0.0513    0.1315   -0.0088   -0.0384   -0.0018   -0.0008    0.0363    0.1037
    53 C5     2py       -0.1727    0.0294    0.2962   -0.2466   -0.0176   -0.0056   -0.0011   -0.0000   -0.0019    0.0110
    54 C5     *py       -0.0340    0.0626    0.1605   -0.1845   -0.0621   -0.0019   -0.0167   -0.0012    0.0205    0.0124
    55 C5     2pz       -0.0355    0.0666    0.0656    0.1097   -0.0170    0.1699    0.0064   -0.0115    0.0089   -0.3293
    56 C5     *pz       -0.0005    0.0340    0.0265    0.0456   -0.0069    0.0946   -0.0019   -0.0012    0.0143   -0.2529
    57 C5     *200       0.0050   -0.0021   -0.0064    0.0031    0.0024    0.0012   -0.0039   -0.0028    0.0017   -0.0067
    58 C5     *110      -0.0043   -0.0042    0.0071   -0.0276   -0.0113   -0.0038   -0.0131   -0.0029    0.0032   -0.0035
    59 C5     *101       0.0046   -0.0005   -0.0044    0.0021    0.0019   -0.0028   -0.0032    0.0060    0.0016    0.0144
    60 C5     *020      -0.0036    0.0076    0.0089    0.0034   -0.0034   -0.0003    0.0055   -0.0003   -0.0010   -0.0004
    61 C5     *011      -0.0021   -0.0011    0.0038   -0.0112   -0.0047    0.0100   -0.0047    0.0068    0.0013    0.0063
    62 C5     *002       0.0001   -0.0015   -0.0015   -0.0002   -0.0001   -0.0009   -0.0010    0.0031    0.0003    0.0070
    63 H6     1s        -0.0015    0.0043    0.0004   -0.0139   -0.3227   -0.0001    0.0231    0.0002    0.0380   -0.0009
    64 H6     *s        -0.0117    0.0152    0.0198   -0.0060   -0.1979   -0.0002    0.0381    0.0002    0.0509   -0.0027
    65 C7     1s         0.0927    0.0120   -0.0209    0.0209    0.0103   -0.0007    0.0097   -0.0004   -0.0007    0.0002
    66 C7     2s        -0.1829   -0.0168    0.0528   -0.0483   -0.0220    0.0015   -0.0193    0.0009   -0.0033   -0.0005
    67 C7     *s        -0.0716    0.0571    0.1314   -0.0530   -0.0282    0.0010   -0.0197   -0.0000   -0.0023   -0.0004
    68 C7     2px        0.0110   -0.0252   -0.0754    0.0583    0.0002   -0.1318   -0.3574   -0.0683    0.1181   -0.0336
    69 C7     *px        0.0298    0.0249    0.0154   -0.0227   -0.0059   -0.0734   -0.2115   -0.0401    0.0633   -0.0281
    70 C7     2py        0.0120   -0.1488   -0.3064    0.1225    0.0302   -0.0112    0.1036   -0.0073   -0.0351   -0.0022
    71 C7     *py        0.1181    0.1065    0.0504   -0.0294   -0.0082   -0.0059    0.0508   -0.0065   -0.0176    0.0030
    72 C7     2pz        0.0056   -0.0152   -0.0407    0.0275    0.0009    0.3297   -0.1373    0.1835    0.0437    0.0861
    73 C7     *pz        0.0161    0.0138    0.0082   -0.0105   -0.0028    0.1846   -0.0818    0.1064    0.0237    0.0756
    74 C7     *200       0.0040    0.0004    0.0004   -0.0021    0.0008   -0.0008   -0.0042   -0.0012    0.0020   -0.0025
    75 C7     *110      -0.0068   -0.0033    0.0017   -0.0094    0.0018   -0.0042   -0.0191   -0.0036    0.0048   -0.0083
    76 C7     *101      -0.0008   -0.0009    0.0001   -0.0020    0.0008    0.0015   -0.0042    0.0026    0.0020    0.0048
    77 C7     *020      -0.0103    0.0008    0.0037   -0.0000    0.0003   -0.0003    0.0050   -0.0003   -0.0032   -0.0007
    78 C7     *011      -0.0038   -0.0012    0.0010   -0.0038    0.0008    0.0104   -0.0072    0.0095    0.0017    0.0198
    79 C7     *002       0.0045    0.0012    0.0004   -0.0005    0.0001    0.0010   -0.0006    0.0015   -0.0001    0.0031
    80 H8     1s         0.0621    0.0789   -0.0718    0.2563    0.0240   -0.0000    0.0339   -0.0004   -0.0023    0.0002
    81 H8     *s         0.0306    0.0495   -0.0367    0.1825    0.0138    0.0000    0.0577   -0.0011    0.0037    0.0021
    82 C9     1s        -0.0808   -0.0069    0.0174   -0.0131   -0.0027   -0.0002    0.0033   -0.0001    0.0010   -0.0000
    83 C9     2s         0.1697    0.0239   -0.0195    0.0209    0.0050    0.0002   -0.0044    0.0001   -0.0069    0.0001
    84 C9     *s         0.0511   -0.1063   -0.1344    0.0768    0.0245   -0.0001    0.0061    0.0022    0.0058   -0.0043
    85 C9     2px        0.0738    0.0381    0.0553   -0.0282    0.0005   -0.1183   -0.3532   -0.0674    0.1196   -0.0651
    86 C9     *px        0.0399    0.0226    0.0270   -0.0221    0.0021   -0.0721   -0.2249   -0.0425    0.0709   -0.0484
    87 C9     2py        0.2931    0.1788    0.2383   -0.0665   -0.0064   -0.0099    0.1055   -0.0073   -0.0304   -0.0053
    88 C9     *py        0.1525    0.1195    0.1227   -0.0411   -0.0108   -0.0059    0.0594   -0.0057   -0.0266   -0.0017
    89 C9     2pz        0.0393    0.0213    0.0299   -0.0134    0.0002    0.2962   -0.1355    0.1816    0.0445    0.1632
    90 C9     *pz        0.0210    0.0131    0.0147   -0.0100    0.0007    0.1803   -0.0864    0.1134    0.0261    0.1224
    91 C9     *200      -0.0030    0.0001    0.0015   -0.0012    0.0000    0.0014    0.0041    0.0006   -0.0015    0.0003
    92 C9     *110       0.0100    0.0021    0.0013   -0.0013    0.0002    0.0068    0.0173    0.0036   -0.0055    0.0016
    93 C9     *101       0.0011    0.0002    0.0002   -0.0003    0.0001   -0.0028    0.0037   -0.0014   -0.0007   -0.0007
    94 C9     *020       0.0182    0.0053    0.0035    0.0005   -0.0003    0.0005   -0.0049    0.0004    0.0015    0.0001
    95 C9     *011       0.0054    0.0012    0.0007   -0.0005    0.0001   -0.0167    0.0065   -0.0094   -0.0019   -0.0040
    96 C9     *002      -0.0037   -0.0000    0.0013   -0.0009   -0.0000   -0.0020    0.0010   -0.0010   -0.0009   -0.0005
    97 H10    1s         0.2489    0.1111    0.1250   -0.0295   -0.0014   -0.0001    0.0017   -0.0000   -0.0010   -0.0000
    98 H10    *s         0.1146    0.0501    0.0718   -0.0180   -0.0016   -0.0000    0.0027    0.0004    0.0032   -0.0007


      Orbital                21        22        23        24        25        26
      Energy             0.0075    0.0004    0.0004   -0.0005    0.0208    0.0026
      Occ. No.           0.1060    0.0620    0.0560    0.0554    0.0453    0.0187

     1 C1     1s        -0.0012    0.0015   -0.0048   -0.0002    0.0031   -0.0047
     2 C1     2s         0.0049   -0.0058    0.0155    0.0002   -0.0095    0.0048
     3 C1     *s         0.0234    0.0020    0.0300   -0.0224   -0.0084   -0.3131
     4 C1     2px        0.0928   -0.3944    0.1535   -0.0415   -0.0827   -0.0226
     5 C1     *px        0.0602   -0.2027    0.0876   -0.0338   -0.0440   -0.1286
     6 C1     2py        0.0286   -0.4659    0.0355   -0.0349   -0.0203   -0.0295
     7 C1     *py        0.0083   -0.2427    0.0101   -0.0094   -0.0089    0.1002
     8 C1     2pz       -0.2808   -0.1727   -0.4710    0.0441    0.2421   -0.0034
     9 C1     *pz       -0.1566   -0.0888   -0.2383    0.0192    0.1219   -0.0282
    10 C1     *200      -0.0007    0.0046   -0.0031    0.0006    0.0019    0.0005
    11 C1     *110       0.0006   -0.0001    0.0030   -0.0000   -0.0019    0.0036
    12 C1     *101       0.0004    0.0044    0.0051   -0.0003   -0.0031    0.0008
    13 C1     *020      -0.0003   -0.0053   -0.0005   -0.0006    0.0002   -0.0034
    14 C1     *011      -0.0008    0.0006   -0.0072    0.0009    0.0046    0.0008
    15 C1     *002       0.0007    0.0013    0.0028   -0.0002   -0.0016    0.0001
    16 C2     1s         0.0006   -0.0022    0.0050   -0.0024   -0.0038    0.0167
    17 C2     2s        -0.0040    0.0098   -0.0175    0.0031    0.0121   -0.0348
    18 C2     *s        -0.0122    0.0118   -0.0377    0.0252    0.0235   -0.0616
    19 C2     2px       -0.0522    0.3993   -0.1676    0.0550    0.1043    0.0244
    20 C2     *px       -0.0028    0.2171   -0.0882    0.0193    0.0685   -0.2920
    21 C2     2py       -0.0187    0.4724   -0.0386    0.0462    0.0248    0.0992
    22 C2     *py       -0.0173    0.2418   -0.0270    0.0400    0.0114    0.3165
    23 C2     2pz        0.1675    0.1749    0.5180   -0.0450   -0.3032    0.0051
    24 C2     *pz        0.0589    0.0940    0.2886   -0.0276   -0.1824   -0.0815
    25 C2     *200      -0.0050    0.0048    0.0005    0.0010   -0.0019    0.0009
    26 C2     *110       0.0035    0.0029   -0.0009   -0.0013    0.0020   -0.0057
    27 C2     *101       0.0143    0.0019    0.0036    0.0006    0.0021    0.0001
    28 C2     *020       0.0015   -0.0057    0.0016   -0.0007   -0.0007    0.0074
    29 C2     *011      -0.0150   -0.0019   -0.0033   -0.0003   -0.0031   -0.0015
    30 C2     *002       0.0037   -0.0005   -0.0010   -0.0004    0.0018    0.0002
    31 H3     1s        -0.0018    0.0010   -0.0054   -0.0001    0.0032   -0.0041
    32 H3     *s         0.0011    0.0020   -0.0023   -0.0046    0.0025   -0.0435
    33 C4     1s         0.0021    0.0045   -0.0051   -0.0151    0.0037   -0.1137
    34 C4     2s        -0.0058   -0.0189    0.0128    0.0327   -0.0110    0.6338
    35 C4     *s        -0.0255   -0.0191    0.0161    0.0384   -0.0250    0.5641
    36 C4     2px       -0.1727   -0.0168    0.0774    0.0313   -0.1194   -0.2266
    37 C4     *px       -0.0983   -0.0216    0.0566    0.0073   -0.0715   -0.2038
    38 C4     2py       -0.0186   -0.0089    0.0157    0.0221   -0.0150   -0.7728
    39 C4     *py       -0.0198   -0.0431    0.0150    0.0106   -0.0195    0.1653
    40 C4     2pz        0.4449   -0.0062   -0.2107    0.0412    0.3265   -0.1061
    41 C4     *pz        0.2531   -0.0099   -0.1511    0.0235    0.1960   -0.0606
    42 C4     *200       0.0047   -0.0082    0.0052   -0.0017    0.0016   -0.0588
    43 C4     *110       0.0018   -0.0040   -0.0029    0.0007    0.0045    0.0704
    44 C4     *101      -0.0082   -0.0067   -0.0143    0.0006    0.0004   -0.0130
    45 C4     *020       0.0008    0.0111   -0.0011   -0.0003    0.0014    0.0284
    46 C4     *011      -0.0029   -0.0004    0.0105   -0.0011   -0.0125    0.0331
    47 C4     *002      -0.0051   -0.0008   -0.0052    0.0008   -0.0020   -0.0390
    48 C5     1s        -0.0016    0.0139    0.0018    0.0055   -0.0015    0.0106
    49 C5     2s         0.0034   -0.0324   -0.0036   -0.0102    0.0031    0.0094
    50 C5     *s         0.0180   -0.0226   -0.0089   -0.0197    0.0174   -0.1700
    51 C5     2px        0.1693    0.0482    0.0018   -0.0308    0.1311    0.0177
    52 C5     *px        0.1119    0.0210    0.0096   -0.0460    0.1034   -0.0057
    53 C5     2py        0.0143   -0.0024   -0.0007   -0.0044    0.0099    0.0246
    54 C5     *py        0.0178    0.0090   -0.0022    0.0034    0.0185   -0.1836
    55 C5     2pz       -0.4257    0.0169   -0.0044   -0.0109   -0.3366    0.0014
    56 C5     *pz       -0.2923    0.0068   -0.0281   -0.0134   -0.2730   -0.0140
    57 C5     *200       0.0024   -0.0003   -0.0040    0.0059   -0.0013   -0.0003
    58 C5     *110       0.0029   -0.0017   -0.0030    0.0172   -0.0037    0.0056
    59 C5     *101      -0.0055   -0.0000    0.0105    0.0031    0.0018   -0.0034
    60 C5     *020      -0.0001    0.0018   -0.0012   -0.0064   -0.0006   -0.0009
    61 C5     *011      -0.0067   -0.0005    0.0108    0.0050    0.0093    0.0019
    62 C5     *002      -0.0024   -0.0004    0.0054    0.0009    0.0018    0.0030
    63 H6     1s         0.0021    0.0747   -0.0074   -0.0131    0.0069   -0.7293
    64 H6     *s         0.0003    0.0627   -0.0055   -0.0104    0.0045   -0.4439
    65 C7     1s         0.0005    0.0026   -0.0012   -0.0087   -0.0004   -0.0049
    66 C7     2s        -0.0016   -0.0032    0.0052    0.0360    0.0019    0.0073
    67 C7     *s        -0.0034   -0.0294    0.0135    0.0766    0.0012    0.0157
    68 C7     2px        0.0498   -0.0264   -0.0655    0.6050   -0.2041   -0.0235
    69 C7     *px        0.0136   -0.0079   -0.0341    0.3108   -0.1119   -0.0778
    70 C7     2py        0.0054    0.0081   -0.0313   -0.1748   -0.0177   -0.0094
    71 C7     *py        0.0088   -0.0011   -0.0142   -0.0704   -0.0004   -0.2208
    72 C7     2pz       -0.1244   -0.0125    0.3635    0.1874    0.5184   -0.0075
    73 C7     *pz       -0.0259   -0.0044    0.1844    0.0969    0.2947   -0.0369
    74 C7     *200      -0.0017    0.0002   -0.0008    0.0014   -0.0026   -0.0006
    75 C7     *110      -0.0085   -0.0007    0.0012   -0.0125   -0.0011    0.0018
    76 C7     *101       0.0032   -0.0004    0.0020    0.0021    0.0052    0.0000
    77 C7     *020      -0.0008   -0.0009   -0.0001   -0.0018   -0.0004    0.0002
    78 C7     *011       0.0205   -0.0003   -0.0079   -0.0041    0.0015    0.0010
    79 C7     *002       0.0023    0.0007    0.0005   -0.0014    0.0028   -0.0005
    80 H8     1s        -0.0016    0.0145   -0.0036   -0.0448   -0.0023   -0.0095
    81 H8     *s         0.0014    0.0203   -0.0037   -0.0482    0.0003   -0.0272
    82 C9     1s        -0.0001    0.0008    0.0008    0.0059    0.0004    0.0012
    83 C9     2s         0.0004   -0.0012   -0.0024   -0.0165   -0.0011   -0.0026
    84 C9     *s        -0.0053    0.0112   -0.0077   -0.0528   -0.0096    0.1830
    85 C9     2px       -0.0955    0.0446    0.0648   -0.5938    0.1755    0.0057
    86 C9     *px       -0.0530    0.0183    0.0333   -0.2910    0.0858   -0.0127
    87 C9     2py       -0.0081   -0.0117    0.0324    0.1777    0.0159    0.0006
    88 C9     *py       -0.0017   -0.0140    0.0195    0.1095    0.0120   -0.0930
    89 C9     2pz        0.2387    0.0196   -0.3600   -0.1836   -0.4441    0.0010
    90 C9     *pz        0.1336    0.0081   -0.1793   -0.0889   -0.2154   -0.0086
    91 C9     *200      -0.0004    0.0003    0.0005   -0.0034    0.0012    0.0002
    92 C9     *110      -0.0004    0.0003    0.0016   -0.0088    0.0043    0.0003
    93 C9     *101       0.0007    0.0002   -0.0020   -0.0028   -0.0023    0.0002
    94 C9     *020      -0.0000    0.0001    0.0008    0.0045    0.0005   -0.0002
    95 C9     *011       0.0009    0.0001   -0.0067   -0.0023   -0.0103    0.0001
    96 C9     *002       0.0004    0.0001   -0.0012   -0.0005   -0.0016    0.0000
    97 H10    1s        -0.0002    0.0002    0.0007    0.0046    0.0002    0.0020
    98 H10    *s        -0.0008    0.0034   -0.0004   -0.0021   -0.0008    0.0248
--

      Von Neumann Entropy (Root   1) =  1.09770


      Mulliken population analysis for root number:  1
      -----------------------------------------------


++    Molecular charges:
      ------------------

      Mulliken charges per centre and basis function type
      ---------------------------------------------------

                C1      C2      H3      C4      C5      H6      C7      H8      C9      H10   
      1s       1.9964  1.9965  0.5006  1.9965  1.9965  0.5315  1.9965  0.5199  1.9965  0.5296
      2s       0.6613  0.6675  0.0000  0.6689  0.6627  0.0000  0.6670  0.0000  0.6704  0.0000
      2px      0.6928  0.6974  0.0000  0.7108  0.7291  0.0000  0.6225  0.0000  0.6163  0.0000
      2pz      0.5949  0.6042  0.0000  0.5914  0.5850  0.0000  0.6118  0.0000  0.6030  0.0000
      2py      0.6796  0.6838  0.0000  0.7171  0.6910  0.0000  0.7836  0.0000  0.8051  0.0000
      *s       0.5345  0.4103  0.2125  0.4614  0.4849  0.2782  0.3691  0.2626  0.5875  0.2139
      *px      0.4284  0.2226  0.0000  0.2124  0.2804  0.0000  0.3404  0.0000  0.4009  0.0000
      *pz      0.4136  0.3693  0.0000  0.3937  0.4071  0.0000  0.3609  0.0000  0.4001  0.0000
      *py      0.4097  0.1987  0.0000  0.3158  0.2802  0.0000  0.0049  0.0000  0.3721  0.0000
      *200     0.0254  0.0182  0.0000  0.0166  0.0201  0.0000 -0.0124  0.0000 -0.0151  0.0000
      *110     0.0109  0.0092  0.0000  0.0143  0.0166  0.0000  0.0119  0.0000  0.0092  0.0000
      *101     0.0044  0.0066  0.0000  0.0076  0.0064  0.0000  0.0010  0.0000  0.0005  0.0000
      *020     0.0188  0.0144  0.0000  0.0270  0.0231  0.0000  0.0464  0.0000  0.0656  0.0000
      *011     0.0039  0.0054  0.0000  0.0037  0.0056  0.0000  0.0119  0.0000  0.0081  0.0000
      *002    -0.0156 -0.0140  0.0000 -0.0136 -0.0121  0.0000 -0.0158  0.0000 -0.0181  0.0000
      Total    6.4590  5.8900  0.7131  6.1237  6.1767  0.8097  5.7998  0.7825  6.5020  0.7435

      N-E     -0.4590  0.1100  0.2869 -0.1237 -0.1767  0.1903  0.2002  0.2175 -0.5020  0.2565

      Total electronic charge=   40.000000

      Total            charge=   -0.000000
--



      Expectation values of various properties for root number:  1
      -----------------------------------------------------------


++    Molecular properties:
      ---------------------

      Charge (e):
                      =   -0.0000
      Dipole Moment (Debye):
      Origin of the operator (Ang)=    0.0000    0.0000    0.0000
                   X= -2.7684E-02               Y= -1.6156E-01               Z=  7.7979E-02           Total=  1.8152E-01
      Quadrupole Moment (Debye*Ang):
      Origin of the operator (Ang)=   -3.3544    0.7418   -0.3587
                  XX= -3.1460E+01              XY= -1.7239E+00              XZ=  1.6305E+00              YY= -2.6701E+01
                  YZ= -5.7114E-02              ZZ= -3.6290E+01
      In traceless form (Debye*Ang)
                  XX=  3.5617E-02              XY= -2.5859E+00              XZ=  2.4458E+00              YY=  7.1743E+00
                  YZ= -8.5671E-02              ZZ= -7.2099E+00
--


      Input file to MOLDEN was generated!

      Average orbitals are written to the RASORB file
      Natural orbitals for root   1 are written to the RASORB.1 file
      Spin density orbitals for root   1 are written to the SPDORB.1 file

--- Stop Module: rasscf at Tue Jun 25 13:18:03 2024 /rc=_RC_ALL_IS_WELL_ ---
*** files: reactant.rasscf.molden reactant.RasOrb.1 reactant.RasOrb reactant.SpdOrb.1 xmldump
    saved to directory /home/kenya/molcas_test/0625
--- Module rasscf spent 3 minutes 6 seconds ---

.##################.
.# Happy landing! #.
.##################.

    Timing: Wall=220.36 User=216.09 System=4.10
