[Molden Format]
[N_Atoms]
                   10
[Atoms] (AU)
C1          1      6         -10.45702628      2.37755892     -2.04557184
C2          2      6          -8.81487317      0.84882718     -1.64049015
H3          3      1         -11.91366497      3.71278271     -2.35956873
C4          4      6          -6.88748481     -0.99938166     -1.05766081
C5          5      6          -4.62364960     -0.36226050     -0.13645712
H6          6      1          -7.34886144     -2.98247915     -1.30200240
C7          7      6          -3.86405529      2.23136971      0.26692382
H8          8      1          -3.29167614     -1.85223396      0.36936587
C9          9      6          -3.37346349      4.36137451      0.53154216
H10        10      1          -2.95492695      6.17857295      0.75728885
[Charge] (Mulliken)
 -0.45895034987756311     
  0.10997248110352498     
  0.28694144957894696     
 -0.12373388530431306     
 -0.17666134560615454     
  0.19028037706190037     
  0.20021215734610021     
  0.21749675196383733     
 -0.50204235431757827     
  0.25648471804998363     
[GTO] (AU)
   1
   s   6
  3.047524880E+03  1.834737132E-03
  4.573695180E+02  1.403732281E-02
  1.039486850E+02  6.884262227E-02
  2.921015530E+01  2.321844432E-01
  9.286662960E+00  4.679413484E-01
  3.163926960E+00  3.623119853E-01
   s   3
  7.868272350E+00 -1.193324198E-01
  1.881288540E+00 -1.608541517E-01
  5.442492580E-01  1.143456438E+00
   s   1
  1.687144782E-01  1.000000000E+00
   p   3
  7.868272350E+00  6.899906659E-02
  1.881288540E+00  3.164239610E-01
  5.442492580E-01  7.443082909E-01
   p   1
  1.687144782E-01  1.000000000E+00
   d   1
  8.000000000E-01  1.000000000E+00
 
   2
   s   6
  3.047524880E+03  1.834737132E-03
  4.573695180E+02  1.403732281E-02
  1.039486850E+02  6.884262227E-02
  2.921015530E+01  2.321844432E-01
  9.286662960E+00  4.679413484E-01
  3.163926960E+00  3.623119853E-01
   s   3
  7.868272350E+00 -1.193324198E-01
  1.881288540E+00 -1.608541517E-01
  5.442492580E-01  1.143456438E+00
   s   1
  1.687144782E-01  1.000000000E+00
   p   3
  7.868272350E+00  6.899906659E-02
  1.881288540E+00  3.164239610E-01
  5.442492580E-01  7.443082909E-01
   p   1
  1.687144782E-01  1.000000000E+00
   d   1
  8.000000000E-01  1.000000000E+00
 
   3
   s   3
  1.873113696E+01  3.349460434E-02
  2.825394365E+00  2.347269535E-01
  6.401216923E-01  8.137573261E-01
   s   1
  1.612777588E-01  1.000000000E+00
 
   4
   s   6
  3.047524880E+03  1.834737132E-03
  4.573695180E+02  1.403732281E-02
  1.039486850E+02  6.884262227E-02
  2.921015530E+01  2.321844432E-01
  9.286662960E+00  4.679413484E-01
  3.163926960E+00  3.623119853E-01
   s   3
  7.868272350E+00 -1.193324198E-01
  1.881288540E+00 -1.608541517E-01
  5.442492580E-01  1.143456438E+00
   s   1
  1.687144782E-01  1.000000000E+00
   p   3
  7.868272350E+00  6.899906659E-02
  1.881288540E+00  3.164239610E-01
  5.442492580E-01  7.443082909E-01
   p   1
  1.687144782E-01  1.000000000E+00
   d   1
  8.000000000E-01  1.000000000E+00
 
   5
   s   6
  3.047524880E+03  1.834737132E-03
  4.573695180E+02  1.403732281E-02
  1.039486850E+02  6.884262227E-02
  2.921015530E+01  2.321844432E-01
  9.286662960E+00  4.679413484E-01
  3.163926960E+00  3.623119853E-01
   s   3
  7.868272350E+00 -1.193324198E-01
  1.881288540E+00 -1.608541517E-01
  5.442492580E-01  1.143456438E+00
   s   1
  1.687144782E-01  1.000000000E+00
   p   3
  7.868272350E+00  6.899906659E-02
  1.881288540E+00  3.164239610E-01
  5.442492580E-01  7.443082909E-01
   p   1
  1.687144782E-01  1.000000000E+00
   d   1
  8.000000000E-01  1.000000000E+00
 
   6
   s   3
  1.873113696E+01  3.349460434E-02
  2.825394365E+00  2.347269535E-01
  6.401216923E-01  8.137573261E-01
   s   1
  1.612777588E-01  1.000000000E+00
 
   7
   s   6
  3.047524880E+03  1.834737132E-03
  4.573695180E+02  1.403732281E-02
  1.039486850E+02  6.884262227E-02
  2.921015530E+01  2.321844432E-01
  9.286662960E+00  4.679413484E-01
  3.163926960E+00  3.623119853E-01
   s   3
  7.868272350E+00 -1.193324198E-01
  1.881288540E+00 -1.608541517E-01
  5.442492580E-01  1.143456438E+00
   s   1
  1.687144782E-01  1.000000000E+00
   p   3
  7.868272350E+00  6.899906659E-02
  1.881288540E+00  3.164239610E-01
  5.442492580E-01  7.443082909E-01
   p   1
  1.687144782E-01  1.000000000E+00
   d   1
  8.000000000E-01  1.000000000E+00
 
   8
   s   3
  1.873113696E+01  3.349460434E-02
  2.825394365E+00  2.347269535E-01
  6.401216923E-01  8.137573261E-01
   s   1
  1.612777588E-01  1.000000000E+00
 
   9
   s   6
  3.047524880E+03  1.834737132E-03
  4.573695180E+02  1.403732281E-02
  1.039486850E+02  6.884262227E-02
  2.921015530E+01  2.321844432E-01
  9.286662960E+00  4.679413484E-01
  3.163926960E+00  3.623119853E-01
   s   3
  7.868272350E+00 -1.193324198E-01
  1.881288540E+00 -1.608541517E-01
  5.442492580E-01  1.143456438E+00
   s   1
  1.687144782E-01  1.000000000E+00
   p   3
  7.868272350E+00  6.899906659E-02
  1.881288540E+00  3.164239610E-01
  5.442492580E-01  7.443082909E-01
   p   1
  1.687144782E-01  1.000000000E+00
   d   1
  8.000000000E-01  1.000000000E+00
 
  10
   s   3
  1.873113696E+01  3.349460434E-02
  2.825394365E+00  2.347269535E-01
  6.401216923E-01  8.137573261E-01
   s   1
  1.612777588E-01  1.000000000E+00
 
[MO]
Sym=     1a  
Ene=   -11.2580
Spin= Alpha
Occup=    2.00000
   1         0.00001652
   2        -0.00003019
   3         0.00237729
   4         0.00000382
   5        -0.00005724
   6        -0.00000627
   7         0.00098077
   8        -0.00099543
   9         0.00023017
  10        -0.00001542
  11         0.00002685
  12        -0.00001763
  13        -0.00002426
  14        -0.00000066
  15        -0.00000274
  16        -0.00099577
  17         0.00008675
  18        -0.00092712
  19        -0.00002329
  20        -0.00005780
  21        -0.00001246
  22         0.00197469
  23        -0.00153163
  24         0.00052240
  25        -0.00004966
  26         0.00002645
  27         0.00004408
  28         0.00000753
  29        -0.00004614
  30        -0.00000352
  31         0.00003392
  32         0.00037258
  33        -0.11912899
  34        -0.00280137
  35        -0.00507693
  36         0.00014610
  37        -0.00015082
  38         0.00000776
  39        -0.00106502
  40        -0.00227744
  41        -0.00053771
  42         0.00049651
  43         0.00052849
  44         0.00043535
  45        -0.00004395
  46         0.00002868
  47        -0.00001719
  48        -0.98837660
  49        -0.02762262
  50         0.01286106
  51        -0.00001257
  52        -0.00059119
  53        -0.00006285
  54        -0.00120165
  55         0.00184304
  56        -0.00042730
  57         0.00172935
  58         0.00175708
  59         0.00225959
  60        -0.00020225
  61        -0.00029755
  62        -0.00010261
  63         0.00015241
  64        -0.00053538
  65        -0.00753065
  66        -0.00016818
  67        -0.00783218
  68        -0.00000788
  69        -0.00003635
  70        -0.00001552
  71         0.00037941
  72        -0.00042272
  73         0.00014393
  74         0.00029076
  75         0.00097171
  76         0.00019155
  77         0.00014183
  78         0.00006488
  79         0.00009576
  80         0.00015511
  81        -0.00139963
  82        -0.00016374
  83        -0.00042352
  84         0.00323174
  85         0.00004719
  86         0.00026349
  87         0.00002358
  88        -0.00075897
  89        -0.00264063
  90        -0.00038662
  91         0.00000150
  92        -0.00020875
  93         0.00001471
  94        -0.00004310
  95        -0.00000852
  96        -0.00002288
  97         0.00016873
  98         0.00095538
Sym=     2a  
Ene=   -11.2510
Spin= Alpha
Occup=    2.00000
   1         0.00022321
   2         0.00029504
   3        -0.00172110
   4         0.00011869
   5        -0.00020580
   6         0.00000710
   7        -0.00138498
   8         0.00103833
   9        -0.00036748
  10         0.00013063
  11         0.00009897
  12         0.00000199
  13        -0.00012273
  14         0.00002901
  15        -0.00001958
  16         0.01125263
  17         0.00056261
  18         0.00698205
  19         0.00022003
  20         0.00004657
  21         0.00008146
  22         0.00103270
  23        -0.00062084
  24         0.00039675
  25        -0.00055605
  26        -0.00075055
  27        -0.00019417
  28         0.00040957
  29        -0.00013885
  30         0.00009980
  31        -0.00012908
  32        -0.00056989
  33         0.98902031
  34         0.02664318
  35        -0.01576212
  36         0.00036233
  37         0.00289999
  38         0.00035391
  39         0.00006642
  40        -0.00169371
  41        -0.00015417
  42        -0.00153939
  43        -0.00207793
  44        -0.00222615
  45        -0.00013997
  46         0.00034618
  47        -0.00003772
  48        -0.11989498
  49        -0.00355802
  50         0.00862661
  51        -0.00007017
  52        -0.00018260
  53         0.00002445
  54        -0.00222985
  55         0.00159104
  56        -0.00073154
  57        -0.00002677
  58        -0.00015989
  59         0.00010236
  60        -0.00013387
  61        -0.00009331
  62        -0.00007061
  63        -0.00213914
  64         0.00006821
  65        -0.00121647
  66        -0.00029445
  67        -0.00067151
  68        -0.00002803
  69         0.00021507
  70         0.00001469
  71         0.00099800
  72         0.00268469
  73         0.00046029
  74         0.00009907
  75         0.00024027
  76        -0.00000231
  77         0.00008538
  78         0.00006007
  79         0.00004283
  80         0.00018588
  81         0.00036789
  82        -0.00006968
  83        -0.00003291
  84        -0.00205676
  85        -0.00001361
  86         0.00006983
  87        -0.00000465
  88         0.00015201
  89         0.00102879
  90         0.00010386
  91         0.00002588
  92        -0.00007844
  93         0.00002662
  94         0.00000809
  95        -0.00000111
  96        -0.00000327
  97        -0.00000891
  98        -0.00028792
Sym=     3a  
Ene=   -11.2170
Spin= Alpha
Occup=    2.00000
   1         0.30441079
   2         0.00734589
   3         0.00132021
   4        -0.00051735
   5         0.00040290
   6        -0.00000900
   7         0.00137000
   8        -0.00127343
   9         0.00044428
  10        -0.00077441
  11        -0.00082470
  12        -0.00109899
  13        -0.00037196
  14         0.00012186
  15        -0.00010902
  16         0.94728303
  17         0.02595702
  18        -0.00894035
  19         0.00011533
  20        -0.00015082
  21         0.00017966
  22        -0.00043675
  23         0.00026720
  24        -0.00015040
  25        -0.00150269
  26        -0.00167884
  27        -0.00271288
  28        -0.00142027
  29         0.00039878
  30        -0.00038183
  31        -0.00034358
  32         0.00092508
  33        -0.01133459
  34        -0.00005827
  35         0.00239033
  36         0.00041378
  37        -0.00053757
  38         0.00014599
  39        -0.00125117
  40         0.00035707
  41        -0.00037987
  42        -0.00082186
  43        -0.00064031
  44        -0.00024070
  45         0.00054878
  46        -0.00025860
  47         0.00017776
  48         0.00036151
  49        -0.00019140
  50         0.00019885
  51        -0.00002418
  52        -0.00010067
  53        -0.00001176
  54        -0.00046788
  55        -0.00004411
  56        -0.00021128
  57         0.00015702
  58         0.00008340
  59        -0.00003019
  60         0.00009317
  61         0.00010463
  62         0.00004965
  63        -0.00006160
  64        -0.00011527
  65        -0.00078565
  66        -0.00019495
  67         0.00154798
  68         0.00013724
  69        -0.00000528
  70         0.00005006
  71        -0.00037924
  72         0.00023341
  73        -0.00011751
  74        -0.00011586
  75        -0.00015040
  76        -0.00017082
  77        -0.00002718
  78         0.00002556
  79        -0.00000788
  80         0.00000917
  81         0.00024959
  82        -0.00011286
  83         0.00004751
  84        -0.00067220
  85         0.00001877
  86        -0.00003750
  87         0.00000841
  88         0.00021882
  89         0.00046157
  90         0.00009545
  91        -0.00001887
  92         0.00005285
  93        -0.00000969
  94        -0.00001462
  95        -0.00000493
  96        -0.00000149
  97        -0.00002955
  98        -0.00015715
Sym=     4a  
Ene=   -11.2110
Spin= Alpha
Occup=    2.00000
   1         0.94774364
   2         0.02664264
   3        -0.01363268
   4         0.00027553
   5        -0.00029536
   6         0.00010014
   7        -0.00305808
   8         0.00280636
   9        -0.00073062
  10        -0.00183414
  11        -0.00196236
  12        -0.00270642
  13        -0.00098391
  14         0.00024381
  15        -0.00022403
  16        -0.30575482
  17        -0.00955860
  18         0.01155112
  19         0.00032665
  20        -0.00034468
  21         0.00012473
  22        -0.00293167
  23         0.00275512
  24        -0.00066386
  25         0.00047543
  26         0.00048826
  27         0.00060498
  28         0.00017466
  29        -0.00005783
  30         0.00006117
  31        -0.00085771
  32         0.00075291
  33         0.00351452
  34         0.00013884
  35        -0.00024931
  36        -0.00005311
  37         0.00011250
  38        -0.00000254
  39         0.00051303
  40        -0.00028742
  41         0.00013970
  42         0.00015375
  43         0.00010293
  44         0.00007464
  45        -0.00006030
  46         0.00003571
  47        -0.00002116
  48        -0.00007660
  49         0.00003249
  50         0.00023545
  51        -0.00001979
  52         0.00003718
  53        -0.00000511
  54         0.00021769
  55         0.00035897
  56         0.00010907
  57        -0.00003256
  58        -0.00000097
  59         0.00001354
  60        -0.00002205
  61        -0.00002687
  62        -0.00001340
  63         0.00000498
  64        -0.00006714
  65         0.00055618
  66         0.00008792
  67        -0.00065691
  68        -0.00004388
  69        -0.00001092
  70        -0.00001683
  71         0.00025336
  72         0.00033857
  73         0.00010120
  74         0.00004069
  75         0.00003851
  76         0.00006339
  77         0.00001100
  78        -0.00001000
  79         0.00000221
  80         0.00000433
  81        -0.00004239
  82         0.00006309
  83        -0.00001853
  84        -0.00005035
  85         0.00000681
  86         0.00001250
  87         0.00000225
  88        -0.00008886
  89        -0.00004858
  90        -0.00003002
  91        -0.00000295
  92        -0.00001945
  93        -0.00000737
  94         0.00001283
  95         0.00000247
  96         0.00000354
  97         0.00000785
  98         0.00004114
Sym=     5a  
Ene=   -11.2080
Spin= Alpha
Occup=    2.00000
   1         0.00027512
   2        -0.00003175
   3         0.00024762
   4        -0.00001635
   5         0.00003599
   6        -0.00000143
   7         0.00030357
   8        -0.00008070
   9         0.00009918
  10         0.00000310
  11        -0.00005163
  12        -0.00000091
  13         0.00002854
  14         0.00000623
  15         0.00000329
  16        -0.00080805
  17         0.00015289
  18        -0.00136326
  19         0.00013155
  20         0.00006464
  21         0.00005328
  22        -0.00053773
  23        -0.00012189
  24        -0.00021604
  25         0.00014984
  26         0.00013146
  27         0.00017948
  28        -0.00003011
  29        -0.00001973
  30        -0.00001491
  31         0.00002560
  32         0.00009884
  33        -0.00036316
  34         0.00018404
  35         0.00038500
  36        -0.00007328
  37         0.00007685
  38        -0.00002654
  39        -0.00042504
  40        -0.00001985
  41        -0.00014831
  42        -0.00021017
  43        -0.00002374
  44         0.00002052
  45         0.00000311
  46        -0.00012289
  47        -0.00000177
  48         0.00797272
  49         0.00002803
  50        -0.00229435
  51         0.00015861
  52         0.00064629
  53         0.00009123
  54        -0.00054575
  55        -0.00100655
  56        -0.00025146
  57         0.00040766
  58         0.00115275
  59         0.00023832
  60         0.00041172
  61         0.00011545
  62         0.00021187
  63        -0.00000896
  64        -0.00022553
  65        -0.97667047
  66        -0.02727803
  67         0.01125321
  68         0.00034700
  69         0.00001212
  70         0.00016027
  71        -0.00004758
  72         0.00074914
  73         0.00000635
  74         0.00287623
  75         0.00056381
  76         0.00297621
  77        -0.00073642
  78        -0.00009312
  79        -0.00039203
  80         0.00009666
  81         0.00001106
  82        -0.19016661
  83        -0.00409468
  84        -0.00402563
  85         0.00010185
  86        -0.00059207
  87         0.00003729
  88         0.00093191
  89         0.00284924
  90         0.00047619
  91         0.00081439
  92         0.00002635
  93         0.00087151
  94        -0.00029764
  95        -0.00004620
  96        -0.00015481
  97         0.00038243
  98        -0.00109056
Sym=     6a  
Ene=   -11.1950
Spin= Alpha
Occup=    2.00000
   1        -0.00002417
   2         0.00000422
   3         0.00057371
   4         0.00001891
   5        -0.00000406
   6         0.00000574
   7         0.00016161
   8        -0.00021206
   9         0.00002677
  10         0.00000338
  11         0.00001742
  12         0.00000868
  13        -0.00000174
  14        -0.00000301
  15         0.00000070
  16         0.00001657
  17        -0.00004730
  18         0.00018812
  19        -0.00003121
  20         0.00001360
  21        -0.00001076
  22         0.00064692
  23        -0.00052928
  24         0.00018761
  25        -0.00002648
  26        -0.00000907
  27        -0.00003590
  28         0.00000466
  29         0.00000628
  30         0.00000309
  31         0.00000268
  32         0.00005199
  33         0.00003620
  34        -0.00001325
  35        -0.00045856
  36        -0.00000887
  37        -0.00003427
  38        -0.00000556
  39         0.00045151
  40        -0.00028356
  41         0.00015522
  42         0.00000383
  43        -0.00001187
  44        -0.00001630
  45         0.00001382
  46         0.00001239
  47         0.00000498
  48        -0.00146466
  49        -0.00014639
  50         0.00015730
  51         0.00000432
  52         0.00002583
  53         0.00000261
  54         0.00017403
  55         0.00060746
  56         0.00008853
  57        -0.00004286
  58         0.00001183
  59        -0.00004087
  60         0.00000904
  61        -0.00000041
  62         0.00000527
  63        -0.00000532
  64         0.00002734
  65         0.19191503
  66         0.00674832
  67        -0.01133990
  68         0.00007505
  69         0.00050818
  70         0.00004514
  71        -0.00082633
  72        -0.00385942
  73        -0.00045187
  74        -0.00029950
  75        -0.00045598
  76        -0.00028850
  77        -0.00002772
  78        -0.00000686
  79        -0.00001656
  80        -0.00002701
  81         0.00009244
  82        -0.97695970
  83        -0.02808163
  84         0.01398590
  85        -0.00000073
  86         0.00034748
  87         0.00000725
  88        -0.00093871
  89        -0.00396304
  90        -0.00050242
  91         0.00303587
  92         0.00101709
  93         0.00311606
  94        -0.00055933
  95        -0.00006988
  96        -0.00030281
  97         0.00105832
  98        -0.00092290
Sym=     7a  
Ene=    -1.0862
Spin= Alpha
Occup=    2.00000
   1        -0.04197506
   2         0.07454373
   3         0.08758297
   4         0.02743820
   5        -0.03249474
   6         0.00922964
   7         0.01278964
   8        -0.01799744
   9         0.00398070
  10         0.00169015
  11         0.00060841
  12        -0.00218756
  13        -0.00406844
  14         0.00142739
  15        -0.00118744
  16        -0.07617886
  17         0.14486022
  18         0.06284766
  19         0.01832334
  20        -0.00863684
  21         0.01107639
  22         0.02366569
  23        -0.02836337
  24         0.00789187
  25         0.00753597
  26         0.00160923
  27        -0.00415320
  28        -0.01089058
  29         0.00439397
  30        -0.00317800
  31         0.01465572
  32         0.00519003
  33        -0.09677980
  34         0.18590329
  35         0.09481308
  36         0.07428890
  37         0.10793666
  38         0.03869424
  39         0.01318205
  40         0.03439515
  41         0.00908910
  42         0.01041994
  43        -0.00172627
  44        -0.00478751
  45         0.00029602
  46         0.00796988
  47         0.00091144
  48        -0.13912482
  49         0.27108751
  50         0.14782337
  51        -0.05840587
  52         0.03298569
  53        -0.01884661
  54        -0.00943061
  55        -0.02667223
  56        -0.00319461
  57         0.00883119
  58         0.00687604
  59        -0.00788722
  60         0.00047406
  61         0.00902299
  62         0.00079890
  63        -0.00506005
  64        -0.02873613
  65        -0.11606280
  66         0.21509714
  67         0.08864333
  68        -0.01610652
  69        -0.00328779
  70        -0.00698264
  71        -0.02497737
  72        -0.07990782
  73        -0.01296880
  74        -0.00517478
  75         0.02007459
  76        -0.00747826
  77         0.00966932
  78         0.00171417
  79         0.00491890
  80         0.06652112
  81         0.00620152
  82        -0.07367097
  83         0.12796840
  84         0.16938018
  85        -0.02095510
  86        -0.06835608
  87        -0.01109547
  88        -0.01009964
  89        -0.04167890
  90        -0.00570461
  91        -0.00315112
  92         0.00810144
  93        -0.00389550
  94         0.00396777
  95         0.00059671
  96         0.00206086
  97         0.02743704
  98         0.00894209
Sym=     8a  
Ene=    -1.0205
Spin= Alpha
Occup=    2.00000
   1         0.12152286
   2        -0.22127875
   3        -0.24231226
   4        -0.07670932
   5         0.07766811
   6        -0.02625419
   7        -0.02387883
   8         0.02798104
   9        -0.00957633
  10        -0.00572085
  11        -0.00420495
  12         0.00724946
  13         0.01515134
  14        -0.00412649
  15         0.00390706
  16         0.13914302
  17        -0.25668288
  18        -0.16630722
  19         0.06105438
  20        -0.05284534
  21         0.00605137
  22        -0.06329738
  23         0.06276295
  24        -0.02215001
  25        -0.00535017
  26        -0.00226393
  27         0.00846255
  28         0.01513967
  29        -0.00436573
  30         0.00385389
  31        -0.04945583
  32        -0.01012344
  33         0.04479002
  34        -0.08905333
  35        -0.00058917
  36         0.03222122
  37        -0.06897116
  38         0.00536245
  39        -0.02803622
  40         0.00780977
  41        -0.01138284
  42        -0.00518538
  43        -0.00202795
  44         0.00274705
  45         0.00659747
  46        -0.00315841
  47         0.00169684
  48        -0.00710991
  49         0.01631233
  50        -0.04935920
  51         0.04716180
  52         0.03636700
  53         0.01953500
  54        -0.00710653
  55        -0.03575040
  56        -0.00393183
  57        -0.00336385
  58         0.00796239
  59        -0.00098338
  60         0.00207513
  61        -0.00097090
  62         0.00120092
  63         0.00431587
  64         0.01962505
  65        -0.11009970
  66         0.19560958
  67         0.11830566
  68         0.01716423
  69         0.10032667
  70         0.00926862
  71        -0.03066647
  72        -0.08805934
  73        -0.01587443
  74        -0.00666408
  75         0.01076866
  76        -0.00698904
  77         0.00377984
  78         0.00039371
  79         0.00217570
  80         0.00859954
  81         0.00050774
  82        -0.11210354
  83         0.19962353
  84         0.23292567
  85        -0.03012680
  86        -0.09062479
  87        -0.01571603
  88        -0.01217493
  89        -0.03488767
  90        -0.00640987
  91        -0.00650047
  92         0.01693291
  93        -0.00739891
  94         0.00675824
  95         0.00083407
  96         0.00365897
  97         0.04959920
  98         0.00957773
Sym=     9a  
Ene=    -0.9804
Spin= Alpha
Occup=    2.00000
   1        -0.10571773
   2         0.19460385
   3         0.15546358
   4         0.06069326
   5        -0.05732720
   6         0.02106567
   7        -0.00545161
   8         0.00664881
   9         0.00306110
  10         0.00550382
  11         0.00438646
  12        -0.00699103
  13        -0.01458686
  14         0.00379266
  15        -0.00357582
  16        -0.07649725
  17         0.13669486
  18         0.12050834
  19        -0.10887141
  20         0.08839509
  21        -0.02357917
  22        -0.00187706
  23         0.00106739
  24         0.00328315
  25        -0.00202727
  26         0.00091650
  27        -0.00459981
  28        -0.00420791
  29        -0.00004182
  30        -0.00047326
  31         0.04831779
  32         0.00107525
  33         0.06411528
  34        -0.12040812
  35        -0.10958760
  36        -0.11682429
  37        -0.04855341
  38        -0.04847615
  39        -0.01923661
  40        -0.03073464
  41        -0.00989907
  42        -0.00617113
  43         0.00511312
  44         0.00283492
  45        -0.00547240
  46        -0.00577008
  47        -0.00198506
  48         0.10686287
  49        -0.20533140
  50        -0.19813036
  51         0.06427569
  52         0.03796423
  53         0.02400107
  54        -0.00475215
  55        -0.00096714
  56        -0.00442624
  57        -0.00888237
  58         0.00153581
  59         0.00572698
  60         0.00207278
  61        -0.00794100
  62         0.00063602
  63         0.00425953
  64         0.01852456
  65        -0.07158617
  66         0.12056589
  67         0.09428269
  68         0.04032661
  69         0.18189187
  70         0.02128998
  71        -0.00708219
  72        -0.02128512
  73        -0.00392132
  74        -0.00414495
  75        -0.00121661
  76        -0.00355991
  77        -0.00160252
  78        -0.00040017
  79        -0.00055069
  80        -0.06567169
  81        -0.01441990
  82        -0.12187686
  83         0.21951539
  84         0.20107190
  85        -0.02745319
  86        -0.08557925
  87        -0.01402547
  88        -0.00704198
  89        -0.00117272
  90        -0.00285339
  91        -0.00784437
  92         0.02081590
  93        -0.00914898
  94         0.00831934
  95         0.00111124
  96         0.00450106
  97         0.06128355
  98         0.00455896
Sym=    10a  
Ene=    -0.8164
Spin= Alpha
Occup=    2.00000
   1         0.09375677
   2        -0.17962481
   3        -0.14411577
   4         0.01543360
   5        -0.01606172
   6         0.00073273
   7         0.03274260
   8        -0.03370130
   9         0.00546441
  10        -0.00867739
  11        -0.00659667
  12         0.00705043
  13         0.01776798
  14        -0.00430355
  15         0.00397709
  16        -0.05525339
  17         0.12036558
  18         0.05998420
  19         0.18584210
  20        -0.16747830
  21         0.05018292
  22         0.04398076
  23        -0.04054116
  24         0.01059250
  25         0.01029804
  26         0.00619154
  27        -0.00273001
  28        -0.01483663
  29         0.00511016
  30        -0.00465403
  31        -0.09820625
  32        -0.03014992
  33        -0.09788253
  34         0.19341427
  35         0.16217005
  36        -0.09699990
  37         0.16758090
  38        -0.02561156
  39        -0.03621937
  40         0.06440964
  41        -0.00917110
  42         0.00419854
  43         0.00364775
  44        -0.00642036
  45        -0.01074012
  46         0.00459151
  47        -0.00313566
  48         0.07343798
  49        -0.14538408
  50        -0.14730617
  51        -0.16509176
  52        -0.02781631
  53        -0.06570643
  54        -0.06540843
  55        -0.00648228
  56        -0.02564828
  57         0.00517710
  58        -0.01737387
  59         0.00569571
  60         0.00224204
  61        -0.00076835
  62         0.00003452
  63        -0.01254159
  64        -0.04261133
  65         0.03872342
  66        -0.08282702
  67        -0.06073438
  68         0.02728514
  69         0.14242109
  70         0.01618502
  71         0.01387285
  72         0.02214966
  73         0.00634024
  74         0.00389949
  75        -0.01496672
  76         0.00312820
  77        -0.00250717
  78         0.00023680
  79        -0.00184769
  80        -0.10824343
  81        -0.04233120
  82        -0.05349267
  83         0.10225612
  84         0.09173197
  85         0.01228100
  86         0.02557103
  87         0.00558699
  88         0.00938839
  89         0.01878002
  90         0.00406257
  91        -0.00378695
  92         0.01372143
  93        -0.00477877
  94         0.00549558
  95         0.00079403
  96         0.00287040
  97         0.06584175
  98         0.02325029
Sym=    11a  
Ene=    -0.7415
Spin= Alpha
Occup=    2.00000
   1        -0.03865744
   2         0.07703534
   3         0.07162471
   4        -0.06156788
   5         0.05467348
   6        -0.01440981
   7        -0.03154364
   8         0.02565618
   9        -0.00777094
  10         0.00561684
  11         0.00391766
  12        -0.00253165
  13        -0.00898681
  14         0.00214730
  15        -0.00197972
  16         0.03835196
  17        -0.07879498
  18        -0.04461222
  19        -0.03759705
  20         0.04180906
  21        -0.01020273
  22        -0.01024681