[Molden Format]
[N_Atoms]
                   10
[Atoms] (AU)
C1          1      6          -5.69174170      4.38970151      0.00000000
C2          2      6          -5.59391058      1.83110682      0.00000000
C3          3      6          -7.87052034      6.15846626      0.00000000
C4          4      6          -7.63129991     -0.09885157      0.00000000
C5          5      6         -10.31121501      5.58051242      0.00000000
C6          6      6         -10.10899542      0.29107451      0.00000000
H7          7      1         -11.39739179     -1.30190792      0.00000000
H8          8      1         -11.71747360      7.07048588      0.00000000
H9          9      1          -3.87577159      5.34544939      0.00000000
H10        10      1          -3.71028827      1.01680494      0.00000000
[Charge] (Mulliken)
   0.0000000000000000     
   0.0000000000000000     
   0.0000000000000000     
   0.0000000000000000     
   0.0000000000000000     
   0.0000000000000000     
   0.0000000000000000     
   0.0000000000000000     
   0.0000000000000000     
   0.0000000000000000     
[GTO] (AU)
   1
   s   6
  3.047524880E+03  1.834737132E-03
  4.573695180E+02  1.403732281E-02
  1.039486850E+02  6.884262227E-02
  2.921015530E+01  2.321844432E-01
  9.286662960E+00  4.679413484E-01
  3.163926960E+00  3.623119853E-01
   s   3
  7.868272350E+00 -1.193324198E-01
  1.881288540E+00 -1.608541517E-01
  5.442492580E-01  1.143456438E+00
   s   1
  1.687144782E-01  1.000000000E+00
   p   3
  7.868272350E+00  6.899906659E-02
  1.881288540E+00  3.164239610E-01
  5.442492580E-01  7.443082909E-01
   p   1
  1.687144782E-01  1.000000000E+00
   d   1
  8.000000000E-01  1.000000000E+00
 
   2
   s   6
  3.047524880E+03  1.834737132E-03
  4.573695180E+02  1.403732281E-02
  1.039486850E+02  6.884262227E-02
  2.921015530E+01  2.321844432E-01
  9.286662960E+00  4.679413484E-01
  3.163926960E+00  3.623119853E-01
   s   3
  7.868272350E+00 -1.193324198E-01
  1.881288540E+00 -1.608541517E-01
  5.442492580E-01  1.143456438E+00
   s   1
  1.687144782E-01  1.000000000E+00
   p   3
  7.868272350E+00  6.899906659E-02
  1.881288540E+00  3.164239610E-01
  5.442492580E-01  7.443082909E-01
   p   1
  1.687144782E-01  1.000000000E+00
   d   1
  8.000000000E-01  1.000000000E+00
 
   3
   s   6
  3.047524880E+03  1.834737132E-03
  4.573695180E+02  1.403732281E-02
  1.039486850E+02  6.884262227E-02
  2.921015530E+01  2.321844432E-01
  9.286662960E+00  4.679413484E-01
  3.163926960E+00  3.623119853E-01
   s   3
  7.868272350E+00 -1.193324198E-01
  1.881288540E+00 -1.608541517E-01
  5.442492580E-01  1.143456438E+00
   s   1
  1.687144782E-01  1.000000000E+00
   p   3
  7.868272350E+00  6.899906659E-02
  1.881288540E+00  3.164239610E-01
  5.442492580E-01  7.443082909E-01
   p   1
  1.687144782E-01  1.000000000E+00
   d   1
  8.000000000E-01  1.000000000E+00
 
   4
   s   6
  3.047524880E+03  1.834737132E-03
  4.573695180E+02  1.403732281E-02
  1.039486850E+02  6.884262227E-02
  2.921015530E+01  2.321844432E-01
  9.286662960E+00  4.679413484E-01
  3.163926960E+00  3.623119853E-01
   s   3
  7.868272350E+00 -1.193324198E-01
  1.881288540E+00 -1.608541517E-01
  5.442492580E-01  1.143456438E+00
   s   1
  1.687144782E-01  1.000000000E+00
   p   3
  7.868272350E+00  6.899906659E-02
  1.881288540E+00  3.164239610E-01
  5.442492580E-01  7.443082909E-01
   p   1
  1.687144782E-01  1.000000000E+00
   d   1
  8.000000000E-01  1.000000000E+00
 
   5
   s   6
  3.047524880E+03  1.834737132E-03
  4.573695180E+02  1.403732281E-02
  1.039486850E+02  6.884262227E-02
  2.921015530E+01  2.321844432E-01
  9.286662960E+00  4.679413484E-01
  3.163926960E+00  3.623119853E-01
   s   3
  7.868272350E+00 -1.193324198E-01
  1.881288540E+00 -1.608541517E-01
  5.442492580E-01  1.143456438E+00
   s   1
  1.687144782E-01  1.000000000E+00
   p   3
  7.868272350E+00  6.899906659E-02
  1.881288540E+00  3.164239610E-01
  5.442492580E-01  7.443082909E-01
   p   1
  1.687144782E-01  1.000000000E+00
   d   1
  8.000000000E-01  1.000000000E+00
 
   6
   s   6
  3.047524880E+03  1.834737132E-03
  4.573695180E+02  1.403732281E-02
  1.039486850E+02  6.884262227E-02
  2.921015530E+01  2.321844432E-01
  9.286662960E+00  4.679413484E-01
  3.163926960E+00  3.623119853E-01
   s   3
  7.868272350E+00 -1.193324198E-01
  1.881288540E+00 -1.608541517E-01
  5.442492580E-01  1.143456438E+00
   s   1
  1.687144782E-01  1.000000000E+00
   p   3
  7.868272350E+00  6.899906659E-02
  1.881288540E+00  3.164239610E-01
  5.442492580E-01  7.443082909E-01
   p   1
  1.687144782E-01  1.000000000E+00
   d   1
  8.000000000E-01  1.000000000E+00
 
   7
   s   3
  1.873113696E+01  3.349460434E-02
  2.825394365E+00  2.347269535E-01
  6.401216923E-01  8.137573261E-01
   s   1
  1.612777588E-01  1.000000000E+00
 
   8
   s   3
  1.873113696E+01  3.349460434E-02
  2.825394365E+00  2.347269535E-01
  6.401216923E-01  8.137573261E-01
   s   1
  1.612777588E-01  1.000000000E+00
 
   9
   s   3
  1.873113696E+01  3.349460434E-02
  2.825394365E+00  2.347269535E-01
  6.401216923E-01  8.137573261E-01
   s   1
  1.612777588E-01  1.000000000E+00
 
  10
   s   3
  1.873113696E+01  3.349460434E-02
  2.825394365E+00  2.347269535E-01
  6.401216923E-01  8.137573261E-01
   s   1
  1.612777588E-01  1.000000000E+00
 
[MO]
Sym=     1a' 
Ene=   -11.3510
Spin= Alpha
Occup=    2.00000
   1         0.59507289
   2         0.01255912
   3         0.00124510
   4        -0.00052080
   5        -0.00118888
   6         0.00000000
   7        -0.00032524
   8        -0.00074246
   9         0.00000000
  10         0.00000000
  11         0.00000000
  12         0.00000000
  13         0.00000000
  14         0.00000000
  15         0.00000000
  16         0.59506554
  17         0.01255896
  18         0.00124508
  19        -0.00061003
  20         0.00114571
  21         0.00000000
  22        -0.00038096
  23         0.00071549
  24         0.00000000
  25        -0.00000000
  26         0.00000000
  27        -0.00000000
  28        -0.00000000
  29         0.00000000
  30         0.00000000
  31         0.31806200
  32         0.00709597
  33         0.00109215
  34         0.00047409
  35        -0.00103606
  36         0.00000000
  37         0.00029607
  38        -0.00064702
  39         0.00000000
  40         0.00000000
  41         0.00000000
  42         0.00000000
  43         0.00000000
  44         0.00000000
  45         0.00000000
  46         0.31804450
  47         0.00709560
  48         0.00109212
  49         0.00039360
  50         0.00106920
  51         0.00000000
  52         0.00024580
  53         0.00066772
  54         0.00000000
  55        -0.00000000
  56        -0.00000000
  57        -0.00000000
  58         0.00000000
  59         0.00000000
  60         0.00000000
  61         0.19408734
  62         0.00426857
  63         0.00059796
  64         0.00101555
  65         0.00010532
  66         0.00000000
  67         0.00063421
  68         0.00006577
  69         0.00000000
  70        -0.00000000
  71        -0.00000000
  72        -0.00000000
  73        -0.00000000
  74         0.00000000
  75         0.00000000
  76         0.19407780
  77         0.00426836
  78         0.00059793
  79         0.00102058
  80        -0.00002747
  81         0.00000000
  82         0.00063735
  83        -0.00001716
  84         0.00000000
  85         0.00000000
  86        -0.00000000
  87         0.00000000
  88        -0.00000000
  89         0.00000000
  90         0.00000000
  91         0.00045595
  92         0.00050910
  93         0.00045597
  94         0.00050912
  95         0.00139562
  96         0.00155828
  97         0.00139562
  98         0.00155828
Sym=     2a' 
Ene=   -11.3470
Spin= Alpha
Occup=    2.00000
   1        -0.15503008
   2        -0.00326972
   3        -0.00032191
   4         0.00085983
   5        -0.00117688
   6         0.00000000
   7         0.00053696
   8        -0.00073496
   9         0.00000000
  10        -0.00000000
  11        -0.00000000
  12        -0.00000000
  13        -0.00000000
  14         0.00000000
  15         0.00000000
  16         0.15504631
  17         0.00327005
  18         0.00032193
  19        -0.00076747
  20        -0.00123905
  21         0.00000000
  22        -0.00047928
  23        -0.00077379
  24         0.00000000
  25        -0.00000000
  26        -0.00000000
  27        -0.00000000
  28         0.00000000
  29         0.00000000
  30         0.00000000
  31        -0.51043662
  32        -0.01044823
  33        -0.00070659
  34         0.00096967
  35         0.00043920
  36         0.00000000
  37         0.00060556
  38         0.00027428
  39         0.00000000
  40        -0.00000000
  41        -0.00000000
  42        -0.00000000
  43        -0.00000000
  44         0.00000000
  45         0.00000000
  46         0.51044530
  47         0.01044843
  48         0.00070663
  49        -0.00100037
  50         0.00036391
  51         0.00000000
  52        -0.00062473
  53         0.00022726
  54         0.00000000
  55        -0.00000000
  56        -0.00000000
  57        -0.00000000
  58         0.00000000
  59         0.00000000
  60         0.00000000
  61        -0.45727486
  62        -0.00936829
  63        -0.00064217
  64        -0.00136404
  65        -0.00039732
  66         0.00000000
  67        -0.00085184
  68        -0.00024813
  69         0.00000000
  70         0.00000000
  71         0.00000000
  72         0.00000000
  73         0.00000000
  74         0.00000000
  75         0.00000000
  76         0.45728522
  77         0.00936850
  78         0.00064218
  79         0.00139042
  80        -0.00029202
  81         0.00000000
  82         0.00086831
  83        -0.00018237
  84         0.00000000
  85         0.00000000
  86         0.00000000
  87         0.00000000
  88        -0.00000000
  89         0.00000000
  90         0.00000000
  91         0.00100871
  92         0.00112628
  93        -0.00100869
  94        -0.00112625
  95        -0.00037225
  96        -0.00041564
  97         0.00037229
  98         0.00041569
Sym=     3a' 
Ene=   -11.3450
Spin= Alpha
Occup=    2.00000
   1        -0.35718783
   2        -0.00664116
   3         0.00025171
   4        -0.00080695
   5         0.00132362
   6         0.00000000
   7        -0.00050394
   8         0.00082660
   9         0.00000000
  10         0.00000000
  11         0.00000000
  12         0.00000000
  13        -0.00000000
  14         0.00000000
  15         0.00000000
  16        -0.35719539
  17        -0.00664130
  18         0.00025172
  19        -0.00070352
  20        -0.00138134
  21         0.00000000
  22        -0.00043935
  23        -0.00086264
  24         0.00000000
  25        -0.00000000
  26        -0.00000000
  27        -0.00000000
  28         0.00000000
  29         0.00000000
  30         0.00000000
  31         0.38026900
  32         0.00738903
  33         0.00008688
  34        -0.00183110
  35         0.00019703
  36         0.00000000
  37        -0.00114352
  38         0.00012304
  39         0.00000000
  40         0.00000000
  41         0.00000000
  42         0.00000000
  43         0.00000000
  44         0.00000000
  45         0.00000000
  46         0.38026627
  47         0.00738898
  48         0.00008688
  49        -0.00181071
  50        -0.00033625
  51         0.00000000
  52        -0.00113079
  53        -0.00020999
  54         0.00000000
  55        -0.00000000
  56        -0.00000000
  57        -0.00000000
  58         0.00000000
  59         0.00000000
  60         0.00000000
  61         0.47125263
  62         0.00937909
  63         0.00035499
  64         0.00090743
  65         0.00022933
  66         0.00000000
  67         0.00056669
  68         0.00014322
  69         0.00000000
  70        -0.00000000
  71        -0.00000000
  72        -0.00000000
  73        -0.00000000
  74         0.00000000
  75         0.00000000
  76         0.47125302
  77         0.00937909
  78         0.00035499
  79         0.00092229
  80        -0.00015938
  81         0.00000000
  82         0.00057597
  83        -0.00009953
  84         0.00000000
  85         0.00000000
  86         0.00000000
  87         0.00000000
  88         0.00000000
  89         0.00000000
  90         0.00000000
  91         0.00100224
  92         0.00111905
  93         0.00100223
  94         0.00111904
  95        -0.00070301
  96        -0.00078494
  97        -0.00070303
  98        -0.00078497
Sym=     4a' 
Ene=   -11.3330
Spin= Alpha
Occup=    2.00000
   1        -0.54980815
   2        -0.00941008
   3         0.00129200
   4         0.00024009
   5        -0.00163216
   6         0.00000000
   7         0.00014994
   8        -0.00101928
   9         0.00000000
  10        -0.00000000
  11         0.00000000
  12         0.00000000
  13        -0.00000000
  14         0.00000000
  15         0.00000000
  16         0.54981118
  17         0.00941014
  18        -0.00129200
  19        -0.00011476
  20        -0.00164571
  21         0.00000000
  22        -0.00007167
  23        -0.00102774
  24         0.00000000
  25        -0.00000000
  26        -0.00000000
  27         0.00000000
  28         0.00000000
  29         0.00000000
  30         0.00000000
  31        -0.18873928
  32        -0.00343460
  33         0.00021608
  34        -0.00182508
  35         0.00035694
  36         0.00000000
  37        -0.00113976
  38         0.00022291
  39         0.00000000
  40        -0.00000000
  41        -0.00000000
  42        -0.00000000
  43        -0.00000000
  44         0.00000000
  45         0.00000000
  46         0.18873503
  47         0.00343454
  48        -0.00021605
  49         0.00179246
  50         0.00049524
  51         0.00000000
  52         0.00111939
  53         0.00030928
  54         0.00000000
  55        -0.00000000
  56        -0.00000000
  57        -0.00000000
  58         0.00000000
  59         0.00000000
  60         0.00000000
  61         0.39729730
  62         0.00691404
  63        -0.00080645
  64        -0.00059530
  65        -0.00002799
  66         0.00000000
  67        -0.00037177
  68        -0.00001748
  69         0.00000000
  70        -0.00000000
  71        -0.00000000
  72        -0.00000000
  73         0.00000000
  74         0.00000000
  75         0.00000000
  76        -0.39728135
  77        -0.00691376
  78         0.00080643
  79         0.00059569
  80         0.00001754
  81         0.00000000
  82         0.00037201
  83         0.00001096
  84         0.00000000
  85        -0.00000000
  86        -0.00000000
  87        -0.00000000
  88        -0.00000000
  89         0.00000000
  90         0.00000000
  91        -0.00070502
  92        -0.00078719
  93         0.00070505
  94         0.00078722
  95        -0.00093668
  96        -0.00104585
  97         0.00093670
  98         0.00104588
Sym=     5a' 
Ene=   -11.3280
Spin= Alpha
Occup=    2.00000
   1         0.10881870
   2         0.00155899
   3        -0.00059357
   4         0.00069718
   5        -0.00078746
   6         0.00000000
   7         0.00043539
   8        -0.00049177
   9         0.00000000
  10        -0.00000000
  11         0.00000000
  12        -0.00000000
  13        -0.00000000
  14         0.00000000
  15         0.00000000
  16         0.10881861
  17         0.00155898
  18        -0.00059359
  19         0.00063504
  20         0.00083841
  21         0.00000000
  22         0.00039658
  23         0.00052359
  24         0.00000000
  25        -0.00000000
  26        -0.00000000
  27        -0.00000000
  28         0.00000000
  29         0.00000000
  30         0.00000000
  31        -0.49930335
  32        -0.00817189
  33         0.00158949
  34        -0.00106592
  35        -0.00042704
  36         0.00000000
  37        -0.00066567
  38        -0.00026669
  39         0.00000000
  40        -0.00000000
  41        -0.00000000
  42        -0.00000000
  43         0.00000000
  44         0.00000000
  45         0.00000000
  46        -0.49932273
  47        -0.00817222
  48         0.00158954
  49        -0.00109546
  50         0.00034442
  51         0.00000000
  52        -0.00068411
  53         0.00021509
  54         0.00000000
  55         0.00000000
  56        -0.00000000
  57        -0.00000000
  58        -0.00000000
  59         0.00000000
  60         0.00000000
  61         0.48511637
  62         0.00806667
  63        -0.00140296
  64        -0.00124716
  65        -0.00033464
  66         0.00000000
  67        -0.00077885
  68        -0.00020899
  69         0.00000000
  70        -0.00000000
  71        -0.00000000
  72        -0.00000000
  73         0.00000000
  74         0.00000000
  75         0.00000000
  76         0.48513267
  77         0.00806694
  78        -0.00140301
  79        -0.00126912
  80         0.00023846
  81         0.00000000
  82        -0.00079256
  83         0.00014892
  84         0.00000000
  85         0.00000000
  86         0.00000000
  87         0.00000000
  88        -0.00000000
  89         0.00000000
  90         0.00000000
  91         0.00078923
  92         0.00088121
  93         0.00078919
  94         0.00088118
  95         0.00012326
  96         0.00013763
  97         0.00012326
  98         0.00013763
Sym=     6a' 
Ene=   -11.3250
Spin= Alpha
Occup=    2.00000
   1        -0.41202803
   2        -0.00639434
   3         0.00170039
   4        -0.00052950
   5        -0.00042090
   6         0.00000000
   7        -0.00033067
   8        -0.00026285
   9         0.00000000
  10        -0.00000000
  11         0.00000000
  12        -0.00000000
  13         0.00000000
  14         0.00000000
  15         0.00000000
  16         0.41202196
  17         0.00639424
  18        -0.00170036
  19         0.00056007
  20        -0.00037928
  21         0.00000000
  22         0.00034976
  23        -0.00023686
  24         0.00000000
  25         0.00000000
  26        -0.00000000
  27        -0.00000000
  28        -0.00000000
  29         0.00000000
  30         0.00000000
  31         0.44602825
  32         0.00706576
  33        -0.00168064
  34         0.00030927
  35         0.00063914
  36         0.00000000
  37         0.00019314
  38         0.00039914
  39         0.00000000
  40         0.00000000
  41         0.00000000
  42         0.00000000
  43         0.00000000
  44         0.00000000
  45         0.00000000
  46        -0.44601326
  47        -0.00706552
  48         0.00168058
  49        -0.00035715
  50         0.00061364
  51         0.00000000
  52        -0.00022304
  53         0.00038322
  54         0.00000000
  55         0.00000000
  56         0.00000000
  57         0.00000000
  58         0.00000000
  59         0.00000000
  60         0.00000000
  61        -0.35806463
  62        -0.00581661
  63         0.00118850
  64         0.00104633
  65         0.00024218
  66         0.00000000
  67         0.00065343
  68         0.00015124
  69         0.00000000
  70         0.00000000
  71         0.00000000
  72         0.00000000
  73         0.00000000
  74         0.00000000
  75         0.00000000
  76         0.35805166
  77         0.00581640
  78        -0.00118846
  79        -0.00106173
  80         0.00016158
  81         0.00000000
  82        -0.00066305
  83         0.00010091
  84         0.00000000
  85         0.00000000
  86         0.00000000
  87         0.00000000
  88        -0.00000000
  89         0.00000000
  90         0.00000000
  91         0.00056024
  92         0.00062554
  93        -0.00056026
  94        -0.00062556
  95        -0.00056380
  96        -0.00062951
  97         0.00056380
  98         0.00062951
Sym=     7a' 
Ene=    -1.5384
Spin= Alpha
Occup=    2.00000
   1        -0.13426461
   2         0.17125693
   3         0.19354442
   4        -0.01795792
   5        -0.03471499
   6         0.00000000
   7        -0.01121471
   8        -0.02167949
   9         0.00000000
  10        -0.00000000
  11        -0.00000000
  12        -0.00000000
  13         0.00000000
  14         0.00000000
  15         0.00000000
  16        -0.13426432
  17         0.17125655
  18         0.19354399
  19        -0.02055613
  20         0.03324278
  21         0.00000000
  22        -0.01283729
  23         0.02076010
  24         0.00000000
  25         0.00000000
  26        -0.00000000
  27        -0.00000000
  28         0.00000000
  29         0.00000000
  30         0.00000000
  31        -0.08223214
  32         0.11035337
  33         0.12462312
  34         0.01717913
  35        -0.04959424
  36         0.00000000
  37         0.01072836
  38        -0.03097158
  39         0.00000000
  40         0.00000000
  41        -0.00000000
  42         0.00000000
  43        -0.00000000
  44         0.00000000
  45         0.00000000
  46        -0.08223146
  47         0.11035263
  48         0.12462229
  49         0.01334238
  50         0.05076093
  51         0.00000000
  52         0.00833231
  53         0.03170018
  54         0.00000000
  55         0.00000000
  56         0.00000000
  57        -0.00000000
  58        -0.00000000
  59         0.00000000
  60         0.00000000
  61        -0.04886659
  62         0.06766130
  63         0.07637732
  64         0.04078112
  65        -0.00920056
  66         0.00000000
  67         0.02546779
  68        -0.00574574
  69         0.00000000
  70         0.00000000
  71        -0.00000000
  72         0.00000000
  73        -0.00000000
  74         0.00000000
  75         0.00000000
  76        -0.04886643
  77         0.06766105
  78         0.07637704
  79         0.03995938
  80         0.01228730
  81         0.00000000
  82         0.02495461
  83         0.00767341
  84         0.00000000
  85        -0.00000000
  86         0.00000000
  87         0.00000000
  88         0.00000000
  89         0.00000000
  90         0.00000000
  91         0.01899323
  92         0.02120692
  93         0.01899323
  94         0.02120693
  95         0.06818509
  96         0.07613218
  97         0.06818536
  98         0.07613248
Sym=     8a' 
Ene=    -1.2828
Spin= Alpha
Occup=    2.00000
   1        -0.05379259
   2         0.07362770
   3         0.08312550
   4        -0.03074872
   5         0.06814573
   6         0.00000000
   7        -0.01920256
   8         0.04255697
   9         0.00000000
  10         0.00000000
  11        -0.00000000
  12         0.00000000
  13         0.00000000
  14         0.00000000
  15         0.00000000
  16         0.05379348
  17        -0.07362881
  18        -0.08312676
  19         0.02545482
  20         0.07029351
  21         0.00000000
  22         0.01589652
  23         0.04389826
  24         0.00000000
  25         0.00000000
  26        -0.00000000
  27        -0.00000000
  28         0.00000000
  29         0.00000000
  30         0.00000000
  31        -0.11668483
  32         0.16359452
  33         0.18463711
  34        -0.02903085
  35        -0.01335886
  36         0.00000000
  37        -0.01812975
  38        -0.00834260
  39         0.00000000
  40        -0.00000000
  41        -0.00000000
  42         0.00000000
  43        -0.00000000
  44         0.00000000
  45         0.00000000
  46         0.11668415
  47        -0.16359390
  48        -0.18463639
  49         0.02996563
  50        -0.01110359
  51         0.00000000
  52         0.01871352
  53        -0.00693419
  54         0.00000000
  55        -0.00000000
  56         0.00000000
  57        -0.00000000
  58        -0.00000000
  59         0.00000000
  60         0.00000000
  61        -0.10266183
  62         0.14368337
  63         0.16216868
  64         0.04557010
  65         0.03853382
  66         0.00000000
  67         0.02845850
  68         0.02406435
  69         0.00000000
  70         0.00000000
  71         0.00000000
  72         0.00000000
  73         0.00000000
  74         0.00000000
  75         0.00000000
  76         0.10266148
  77        -0.14368280
  78        -0.16216804
  79        -0.04837872
  80         0.03494218
  81         0.00000000
  82        -0.03021249
  83         0.02182137
  84         0.00000000
  85         0.00000000
  86         0.00000000
  87         0.00000000
  88        -0.00000000
  89         0.00000000
  90         0.00000000
  91        -0.06829079
  92        -0.07625020
  93         0.06829086
  94         0.07625028
  95         0.03700784
  96         0.04132117
  97        -0.03700896
  98        -0.04132242
Sym=     9a' 
Ene=    -1.2351
Spin= Alpha
Occup=    2.00000
   1         0.07069543
   2        -0.09108382
   3        -0.10292225
   4        -0.08109145
   5         0.03424871
   6         0.00000000
   7        -0.05064157
   8         0.02138830
   9         0.00000000
  10        -0.00000000
  11        -0.00000000
  12         0.00000000
  13        -0.00000000
  14         0.00000000
  15         0.00000000
  16         0.07069621
  17        -0.09108472
  18        -0.10292326
  19        -0.07823956
  20        -0.04033998
  21         0.00000000
  22        -0.04886056
  23        -0.02519230
  24         0.00000000
  25        -0.00000000
  26        -0.00000000
  27        -0.00000000
  28        -0.00000000
  29         0.00000000
  30         0.00000000
  31        -0.06631278
  32         0.09055452
  33         0.10223913
  34        -0.09644361
  35         0.00258305
  36         0.00000000
  37        -0.06022899
  38         0.00161312
  39         0.00000000
  40        -0.00000000
  41         0.00000000
  42        -0.00000000
  43         0.00000000
  44         0.00000000
  45         0.00000000
  46        -0.06631350
  47         0.09055567
  48         0.10224043
  49        -0.09596579
  50        -0.00993903
  51         0.00000000
  52        -0.05993058
  53        -0.00620692
  54         0.00000000
  55        -0.00000000
  56         0.00000000
  57         0.00000000
  58         0.00000000
  59         0.00000000
  60         0.00000000
  61        -0.11247445
  62         0.15864732
  63         0.17903897
  64         0.01939097
  65         0.02477478
  66         0.00000000
  67         0.01210965
  68         0.01547184
  69         0.00000000
  70         0.00000000
  71         0.00000000
  72         0.00000000
  73         0.00000000
  74         0.00000000
  75         0.00000000
  76        -0.11247590
  77         0.15864924
  78         0.17904114
  79         0.02122589
  80        -0.02322267
  81         0.00000000
  82         0.01325556
  83        -0.01450255
  84         0.00000000
  85        -0.00000000
  86        -0.00000000
  87        -0.00000000
  88         0.00000000
  89         0.00000000
  90         0.00000000
  91         0.08054066
  92         0.08992781
  93         0.08053936
  94         0.08992637
  95        -0.06949739
  96        -0.07759744
  97        -0.06949794
  98        -0.07759804
Sym=    10a' 
Ene=    -1.0462
Spin= Alpha
Occup=    2.00000
   1         0.08939409
   2        -0.12377041
   3        -0.13971441
   4        -0.00744392
   5        -0.11356861
   6         0.00000000
   7        -0.00464873
   8        -0.07092354
   9         0.00000000
  10         0.00000000
  11         0.00000000
  12         0.00000000
  13         0.00000000
  14         0.00000000
  15         0.00000000
  16        -0.08939365
  17         0.12376986
  18         0.13971379
  19         0.01609307
  20        -0.11266906
  21         0.00000000
  22         0.01005012
  23        -0.07036177
  24         0.00000000
  25        -0.00000000
  26        -0.00000000
  27        -0.00000000
  28        -0.00000000
  29         0.00000000
  30         0.00000000
  31         0.03138043
  32        -0.04726547
  33        -0.05329514
  34        -0.13562943
  35         0.03189199
  36         0.00000000
  37        -0.08470051
  38         0.01991653
  39         0.00000000
  40        -0.00000000
  41        -0.00000000
  42        -0.00000000
  43        -0.00000000
  44         0.00000000
  45         0.00000000
  46        -0.03138048
  47         0.04726582
  48         0.05329553
  49         0.13279720
  50         0.04215374
  51         0.00000000
  52         0.08293178
  53         0.02632499
  54         0.00000000
  55         0.00000000
  56         0.00000000
  57         0.00000000
  58        -0.00000000
  59         0.00000000
  60         0.00000000
  61        -0.08041136
  62         0.11508657
  63         0.12985390
  64        -0.04762487
  65         0.05124444
  66         0.00000000
  67        -0.02974171
  68         0.03200213
  69         0.00000000
  70         0.00000000
  71         0.00000000
  72         0.00000000
  73         0.00000000
  74         0.00000000
  75         0.00000000
  76         0.08041014
  77        -0.11508461
  78        -0.12985168
  79         0.04357340
  80         0.05473047
  81         0.00000000
  82         0.02721157
  83         0.03417915
  84         0.00000000
  85        -0.00000000
  86         0.00000000
  87         0.00000000
  88         0.00000000
  89         0.00000000
  90         0.00000000
  91        -0.09260534
  92        -0.10339865
  93         0.09260645
  94         0.10339990
  95        -0.09102382
  96        -0.10163280
  97         0.09102394
  98         0.10163294
Sym=    11a' 
Ene=    -0.9033
Spin= Alpha
Occup=    2.00000
   1        -0.00806381
   2         0.01294161
   3         0.01458127
   4         0.18679054
   5        -0.00166074
   6         0.00000000
   7         0.11665060
   8        -0.00103713
   9         0.00000000
  10        -0.00000000
  11        -0.00000000
  12        -0.00000000
  13         0.00000000
  14         0.00000000
  15         0.00000000
  16        -0.00806432
  17         0.01294198
  18         0.01458169
  19         0.18611881
  20         0.01591903
  21         0.00000000
  22         0.11623110