   This run of MOLCAS is using the pymolcas driver

                             OPE
                             OPE          NMOL  CASOP  ENMOLC A   SO
                 OPE        NMOLC        AS  OP EN  MO LC     AS  OP
                OPENM       OL CA        SO  PE NM  OL CA     SOP EN
                OP EN      MO   LC       AS  OP ENMOL  CASO   PENMOL
                OP  EN     MO   LC       AS  OP EN     MO     LC ASO
               OP   E  NMOL  C  AS       OP  EN MO     LC     AS  OP
               OP  E   NMO   LC AS        OPEN  MO     LCASOP EN   M
               O  PEN   MO  LCA  SO
            OPE   NMO   L   CAS    OP
        OPENMOL  CASOP     ENMOL   CASOPE
     OPENMOLCA   SOPENMOLCASOPEN   MOLCASOPE
    OPENMOLCAS   OP           EN   MOL    CAS
    OPENMOLCAS       OP  ENM        O     LCA
    OPENMOLCAS    OPEN  MOLCASO     P  E  NMO
    OPENMOLCAS     OP               E  N  MOL
    OPENMOLCA   SO           PENM   O  L  CAS    OPEN    MO    LCAS
    OPENMOLCA   SOP           ENM   O  L  CAS   OP  EN  MOLC  AS   O
    OPENMOLCA   SOPE           NM      O  LCA   S      OP  EN MO
    OPENMOLC                AS         O  PEN   M      OL  CA  SOPE
    OPENMO        LCASOPE  NMOL        C  ASO   P      ENMOLC     AS
    OPE     NMO      LCA  SO     P     E   NM   OL  CA SO  PE N   MO
          OPENMOLCA            SOPE   NMO        LCAS  O    P  ENMO
     OPENMOLCASOPENMOLCASOPENMOLCASOPENMOLCA
        OPENMOLCASOPENMOLCASOPENMOLCASOPE
            OPENMOLCASOPENMOLCASOPENM
               OPENMOLCASOPENMOLCA        version: 24.02
                   OPENMOLCASO
                       OPE                tag: 428-g03afa2e9a

 OpenMolcas is free software; you can redistribute it and/or modify it
 under the terms of the GNU Lesser General Public License version 2.1.
 OpenMolcas is distributed in the hope that it will be useful, but it
 is provided "as is" and without any express or implied warranties.
 For more details see the full text of the license in the file
 LICENSE or in <http://www.gnu.org/licenses/>.

                 Copyright (C) The OpenMolcas Authors
           For the author list and the recommended citation,
                   consult the file CONTRIBUTORS.md

           *************************************************
           * pymolcas version py2.28                       *
           *   build c4a6d18ded8cb6cad61d2372a9abd97c      *
           *   (after the EMIL interpreter by V. Veryazov) *
           *************************************************

configuration info
------------------
Host name: DESKTOP-ET1S6F4 (Linux)
C Compiler ID: GNU
C flags: -std=gnu99 -fopenmp
Fortran Compiler ID: GNU
Fortran flags: -fno-aggressive-loop-optimizations -cpp -fdefault-integer-8 -fopenmp
Definitions: _WARNING_WORKAROUND_;_MOLCAS_;_I8_;_LINUX_
Parallel: OFF (GA=OFF)


   ----------------------------------------------------------------------
  |
  |           Project: transition_state
  |    Submitted from: /home/kenya/molcas_test/0625
  |      Scratch area: /tmp/transition_state
  |   Save outputs to: /home/kenya/molcas_test/0625
  |            Molcas: /home/kenya/OpenMolcas/builds/gnu_dev_omp
  |
  | Scratch area is NOT empty
  |
  |    MOLCAS_DRIVER = /home/kenya/OpenMolcas/builds/gnu_dev_omp/pymolcas
  |    MOLCAS_NPROCS = 1
  |    MOLCAS_SOURCE = /home/kenya/OpenMolcas
  | MOLCAS_STRUCTURE = 0
  |
   ----------------------------------------------------------------------

++ ---------   Input file   ---------

&GATEWAY
Coord = 10
        Energy:      18.3252862
C         -3.01194        2.32293       -0.00000
C         -2.96017        0.96898       -0.00000
C         -4.16490        3.25892       -0.00000
C         -4.03831       -0.05231       -0.00000
C         -5.45646        2.95308       -0.00000
C         -5.34945        0.15403       -0.00000
H         -6.03124       -0.68894       -0.00000
H         -6.20062        3.74154       -0.00000
H         -2.05097        2.82869        0.00000
H         -1.96340        0.53807        0.00000

  Basis = 6-31G*
  Group = Full
  NoCD

&SEWARD

&SCF

&RASSCF
  Inactive = 14
  RAS2   = 12
  nActEl = 12 0 0
  LUMORB

-- ----------------------------------

*** symbolic link created: INPORB -> transition_state.ScfOrb
--- Start Module: gateway at Tue Jun 25 13:16:40 2024 ---

()()()()()()()()()()()()()()()()()()()()()()()()()()()()()()()()()()()()()()()()()()()()()()()()()()

                                              &GATEWAY

                                   only a single process is used
                       available to each process: 2.0 GB of memory, 1 thread
                                             pid: 31138
()()()()()()()()()()()()()()()()()()()()()()()()()()()()()()()()()()()()()()()()()()()()()()()()()()

      Found SYMMETRY generators: z

++    Symmetry information:
      ---------------------

                    --- Group Generators ---
                    Reflection in the xy-plane  

                    Character Table for Cs 

                             E   s(xy)
                    a'       1     1  x, y, xy, Rz
                    a"       1    -1  z, xz, Ry, yz, Rx, I
--


++    Basis set information:
      ----------------------


      Basis set label: C.6-31G**....

      Electronic valence basis set:
      ------------------
      Associated Effective Charge   6.000000 au
      Associated Actual Charge      6.000000 au
      Nuclear Model: Point charge

      Shell  nPrim  nBasis  Cartesian Spherical Contaminant
         s      10       3        X                  
         p       4       2        X                  
         d       1       1        X                  


      Basis set label: H.6-31G....

      Electronic valence basis set:
      ------------------
      Associated Effective Charge   1.000000 au
      Associated Actual Charge      1.000000 au
      Nuclear Model: Point charge

      Shell  nPrim  nBasis  Cartesian Spherical Contaminant
         s       4       2        X                  
--


++    Molecular structure info:
      -------------------------

                    ************************************************ 
                    **** Cartesian Coordinates / Bohr, Angstrom **** 
                    ************************************************ 

     Center  Label                x              y              z                     x              y              z
        1      C1              -5.691742       4.389702       0.000000             -3.011940       2.322930       0.000000
        2      C2              -5.593911       1.831107       0.000000             -2.960170       0.968980       0.000000
        3      C3              -7.870520       6.158466       0.000000             -4.164900       3.258920       0.000000
        4      C4              -7.631300      -0.098852       0.000000             -4.038310      -0.052310       0.000000
        5      C5             -10.311215       5.580512       0.000000             -5.456460       2.953080       0.000000
        6      C6             -10.108995       0.291075       0.000000             -5.349450       0.154030       0.000000
        7      H7             -11.397392      -1.301908       0.000000             -6.031240      -0.688940       0.000000
        8      H8             -11.717474       7.070486       0.000000             -6.200620       3.741540       0.000000
        9      H9              -3.875772       5.345449       0.000000             -2.050970       2.828690       0.000000
       10      H10             -3.710288       1.016805       0.000000             -1.963400       0.538070       0.000000

                    *************************************** 
                    *    InterNuclear Distances / Bohr    * 
                    *************************************** 

               1 C1            2 C2            3 C3            4 C4            5 C5            6 C6    
    1 C1       0.000000
    2 C2       2.560464        0.000000
    3 C3       2.806351        4.889682        0.000000
    4 C4       4.889682        2.806367        6.261889        0.000000
    5 C5       4.770489        6.025861        2.508191        6.279898        0.000000
    6 C6       6.025850        4.770502        6.279893        2.508190        5.293302        0.000000
    7 H7       8.059086        6.595163        8.252030        3.953580        6.967603        2.048794
    8 H8       6.595154        8.059102        3.953584        8.252043        2.048801        6.967612
    9 H9       2.052121        3.911854        4.076642        6.613955        6.439735        8.024948
   10 H10      3.911852        2.052101        6.613941        4.076643        8.024940        6.439731

               7 H7            8 H8            9 H9           10 H10   
    7 H7       0.000000
    8 H8       8.378510        0.000000
    9 H9      10.038034        8.029199        0.000000
   10 H10      8.029196       10.038031        4.331806        0.000000

                    ******************************************* 
                    *    InterNuclear Distances / Angstrom    * 
                    ******************************************* 

               1 C1            2 C2            3 C3            4 C4            5 C5            6 C6    
    1 C1       0.000000
    2 C2       1.354939        0.000000
    3 C3       1.485057        2.587508        0.000000
    4 C4       2.587509        1.485065        3.313649        0.000000
    5 C5       2.524434        3.188748        1.327277        3.323179        0.000000
    6 C6       3.188743        2.524441        3.323176        1.327277        2.801095        0.000000
    7 H7       4.264684        3.490010        4.366786        2.092144        3.687097        1.084175
    8 H8       3.490005        4.264693        2.092147        4.366793        1.084179        3.687102
    9 H9       1.085936        2.070064        2.157266        3.499954        3.407761        4.246619
   10 H10      2.070063        1.085925        3.499947        2.157267        4.246615        3.407759

               7 H7            8 H8            9 H9           10 H10   
    7 H7       0.000000
    8 H8       4.433717        0.000000
    9 H9       5.311899        4.248869        0.000000
   10 H10      4.248868        5.311897        2.292293        0.000000

                    ************************************** 
                    *    Valence Bond Angles / Degree    * 
                    ************************************** 
                          Atom centers                 Phi
                      2 C2       1 C1       3 C3       131.26
                      2 C2       1 C1       9 H9       115.57
                      3 C3       1 C1       9 H9       113.17
                      1 C1       2 C2       4 C4       131.26
                      1 C1       2 C2      10 H10      115.57
                      4 C4       2 C2      10 H10      113.17
                      1 C1       3 C3       5 C5       127.61
                      2 C2       4 C4       6 C6       127.61
                      3 C3       5 C5       8 H8       120.02
                      4 C4       6 C6       7 H7       120.02

           ***************************************************************
           *              Valence Dihedral Angles / Degree               *
           ***************************************************************
                    Atom centers                       Phi1     Phi2     Theta 
           3 C3       1 C1       2 C2       4 C4        131.26   131.26    -0.00
           3 C3       1 C1       2 C2      10 H10       131.26   115.57  -180.00
           9 H9       1 C1       2 C2      10 H10       115.57   115.57     0.00
           2 C2       1 C1       3 C3       5 C5        131.26   127.61    -0.00
           4 C4       2 C2       1 C1       9 H9        131.26   115.57  -180.00
           1 C1       2 C2       4 C4       6 C6        131.26   127.61    -0.00
           5 C5       3 C3       1 C1       9 H9        127.61   113.17  -180.00
           1 C1       3 C3       5 C5       8 H8        127.61   120.02  -180.00
           6 C6       4 C4       2 C2      10 H10       127.61   113.17  -180.00
           2 C2       4 C4       6 C6       7 H7        127.61   120.02  -180.00
--


            Nuclear Potential Energy            167.41112322 au

--- Stop Module: gateway at Tue Jun 25 13:16:40 2024 /rc=_RC_ALL_IS_WELL_ ---
*** files: xmldump
    saved to directory /home/kenya/molcas_test/0625

*** symbolic link created: INPORB -> transition_state.ScfOrb
--- Start Module: seward at Tue Jun 25 13:16:40 2024 ---

()()()()()()()()()()()()()()()()()()()()()()()()()()()()()()()()()()()()()()()()()()()()()()()()()()

                                              &SEWARD

                                   only a single process is used
                       available to each process: 2.0 GB of memory, 1 thread
                                             pid: 31142
()()()()()()()()()()()()()()()()()()()()()()()()()()()()()()()()()()()()()()()()()()()()()()()()()()

               SEWARD will generate:
                  Multipole Moment integrals up to order  2
                  Kinetic Energy integrals
                  Nuclear Attraction integrals (point charge)
                  One-Electron Hamiltonian integrals
                  Velocity integrals
                  Orbital angular momentum around (-7.8577  3.0257  0.0000 )
                  Velocity quadrupole around (-7.8577  3.0257  0.0000 )
                  Two-Electron Repulsion integrals

                   Integrals are discarded if absolute value <: 1.00E-14
                   Integral cutoff threshold is set to       <: 1.00E-16

                    Unitary symmetry adaptation


            Nuclear Potential Energy            167.41112322 au


      Basis set specifications :
      Symmetry species         a'   a" 
      Basis functions           74   24


      Input file to MOLDEN was generated!

--- Stop Module: seward at Tue Jun 25 13:16:43 2024 /rc=_RC_ALL_IS_WELL_ ---
*** files: transition_state.GssOrb transition_state.guessorb.molden xmldump
    saved to directory /home/kenya/molcas_test/0625
--- Module seward spent 2 seconds ---

*** symbolic link created: INPORB -> transition_state.ScfOrb
--- Start Module: scf at Tue Jun 25 13:16:43 2024 ---

()()()()()()()()()()()()()()()()()()()()()()()()()()()()()()()()()()()()()()()()()()()()()()()()()()

                                                &SCF

                                   only a single process is used
                       available to each process: 2.0 GB of memory, 1 thread
                                             pid: 31183
()()()()()()()()()()()()()()()()()()()()()()()()()()()()()()()()()()()()()()()()()()()()()()()()()()

++    Input section:
      --------------

      Header of the integral files:
      
       Integrals generated by Gateway/Seward, Tue Jun 25 13:16:40 2024


      Cartesian coordinates in Angstrom:
      -----------------------------------------------------
      No.  Label        X            Y            Z        
      -----------------------------------------------------
       1   C1        -3.01194000   2.32293000   0.00000000
       2   C2        -2.96017000   0.96898000   0.00000000
       3   C3        -4.16490000   3.25892000   0.00000000
       4   C4        -4.03831000  -0.05231000   0.00000000
       5   C5        -5.45646000   2.95308000   0.00000000
       6   C6        -5.34945000   0.15403000   0.00000000
       7   H7        -6.03124000  -0.68894000   0.00000000
       8   H8        -6.20062000   3.74154000   0.00000000
       9   H9        -2.05097000   2.82869000   0.00000000
      10   H10       -1.96340000   0.53807000   0.00000000
      -----------------------------------------------------
      Nuclear repulsion energy =  167.41112322
--

++    Orbital specifications:
      -----------------------

      Symmetry species               1   2
                                    a'  a"
      Frozen orbitals                0   0
      Occupied orbitals             17   3
      Secondary orbitals            57  21
      Deleted orbitals               0   0
      Total number of orbitals      74  24
      Number of basis functions     74  24
--

      Molecular charge                           0.000

++    Optimization specifications:
      ----------------------------

      SCF Algorithm: Conventional
      Minimized density differences are used
      Number of density matrices in core                 5
      Maximum number of NDDO SCF iterations            400
      Maximum number of HF SCF iterations              400
      Threshold for SCF energy change             1.00E-09
      Threshold for density matrix                1.00E-04
      Threshold for Fock matrix                   1.50E-04
      Threshold for linear dependence             1.00E-09
      Threshold at which DIIS is turned on        1.50E-01
      Maximum depth in the DIIS procedure                5
      Maximum depth in the BFGS Hessian update          30
      Threshold at which QNR/C2DIIS is turned on  7.50E-02
      Threshold for Norm(delta) (QNR/C2DIIS)      1.00E-03
      All orbitals punched on: SCFORB
--

      Input vectors read from INPORB
      Orbital file label: * SCF orbitals


++ Convergence information
                                   SCF        iterations: Energy and convergence statistics

Iter     Tot. SCF        One-elec.       Two-elec.     Energy      Max Dij or  Max Fij      DNorm      TNorm      AccCon     Time
         Energy          Energy          Energy        Change      Delta Norm                                                in Sec.
   1  -229.206043720  -639.695247320   243.078080380   0.00E+00    1.29E-06    3.93E-07     6.94E+00   2.31E+02   None         0.
   2  -229.206043720  -639.695250812   243.078083872  -8.07E-12    7.15E-07    1.73E-07     9.57E-06   2.31E+02   EDIIS        0.

       Convergence after   2 Macro Iterations
--

 *****************************************************************************************************************************
 *                                                                                                                           *
 *                                             SCF/KS-DFT Program, Final results                                             *
 *                                                                                                                           *
 *                                                                                                                           *
 *                                                                                                                           *
 *                                                       Final Results                                                       *
 *                                                                                                                           *
 *****************************************************************************************************************************

::    Total SCF energy                               -229.2060437198
      One-electron energy                            -639.6952508119
      Two-electron energy                             243.0780838719
      Nuclear repulsion energy                        167.4111232202
      Kinetic energy (interpolated)                   228.2241474371
      Virial theorem                                    1.0043023330
      Total spin, S(S+1)                                0.0000000000
      Total spin, S                                     0.0000000000
      Max non-diagonal density matrix element           0.0000007154
      Max non-diagonal Fock matrix element              0.0000001728


      All orbitals with orbital energies smaller than  E(LUMO)+0.5 are printed

++    Molecular orbitals:
      -------------------

      Title: SCF orbitals

      Molecular orbitals for symmetry species 1: a' 

          Orbital            1         2         3         4         5         6         7         8         9        10    
          Energy          -11.2796  -11.2796  -11.2772  -11.2757  -11.2746  -11.2746   -1.1036   -1.0256   -0.9787   -0.8521
          Occ. No.          2.0000    2.0000    2.0000    2.0000    2.0000    2.0000    2.0000    2.0000    2.0000    2.0000

        1 C1     1s         0.0873   -0.0783    0.6966   -0.7003    0.0253   -0.0383   -0.1284    0.0468    0.0835    0.0953
        2 C1     2s         0.0023   -0.0022    0.0188   -0.0194    0.0006   -0.0011    0.2496   -0.0898   -0.1637   -0.1919
        3 C1     *s         0.0011   -0.0036   -0.0061    0.0136   -0.0000    0.0026    0.1737   -0.0710   -0.1415   -0.1570
        4 C1     2px        0.0002   -0.0001   -0.0003    0.0003   -0.0000    0.0000   -0.0231    0.0404   -0.0560    0.0080
        5 C1     *px       -0.0010    0.0023    0.0005   -0.0025    0.0001   -0.0006    0.0016    0.0129   -0.0164   -0.0113
        6 C1     2py        0.0000    0.0001    0.0003    0.0001   -0.0000    0.0000   -0.0566   -0.0642    0.0855   -0.1359
        7 C1     *py        0.0001   -0.0002   -0.0009   -0.0020    0.0005   -0.0009   -0.0009   -0.0129    0.0047   -0.0773
        8 C1     *200      -0.0003    0.0003   -0.0008    0.0006    0.0000   -0.0000    0.0026   -0.0051    0.0010   -0.0080
        9 C1     *110       0.0002   -0.0004   -0.0001    0.0002   -0.0001    0.0001   -0.0018    0.0064   -0.0047    0.0012
       10 C1     *020      -0.0002    0.0004   -0.0007    0.0004    0.0000   -0.0000    0.0078   -0.0008   -0.0055   -0.0011
       11 C1     *002      -0.0002    0.0002   -0.0009    0.0008   -0.0000    0.0000   -0.0063    0.0028    0.0036    0.0046
       12 C2     1s         0.1069    0.0481    0.6967    0.7002    0.0154    0.0432   -0.1284   -0.0468    0.0835   -0.0953
       13 C2     2s         0.0029    0.0014    0.0188    0.0194    0.0003    0.0012    0.2496    0.0898   -0.1637    0.1919
       14 C2     *s         0.0022    0.0031   -0.0061   -0.0136    0.0006   -0.0025    0.1737    0.0710   -0.1415    0.1570
       15 C2     2px        0.0002    0.0001   -0.0003   -0.0003   -0.0000   -0.0000   -0.0273   -0.0354   -0.0493    0.0024
       16 C2     *px       -0.0016   -0.0019    0.0005    0.0026   -0.0001    0.0007    0.0016   -0.0119   -0.0160    0.0172
       17 C2     2py        0.0000    0.0001   -0.0003    0.0001   -0.0000    0.0000    0.0546   -0.0671   -0.0895   -0.1361
       18 C2     *py       -0.0003   -0.0003    0.0010   -0.0018   -0.0003   -0.0010    0.0010   -0.0139   -0.0060   -0.0762
       19 C2     *200      -0.0003   -0.0002   -0.0008   -0.0006    0.0000    0.0000    0.0025    0.0046    0.0006    0.0079
       20 C2     *110      -0.0003   -0.0003    0.0001    0.0002    0.0001    0.0001    0.0010    0.0070    0.0057    0.0023
       21 C2     *020      -0.0004   -0.0003   -0.0007   -0.0003    0.0000    0.0000    0.0079    0.0013   -0.0051    0.0012
       22 C2     *002      -0.0003   -0.0001   -0.0009   -0.0008   -0.0000   -0.0000   -0.0063   -0.0028    0.0036   -0.0046
       23 C3     1s         0.5725   -0.7876   -0.0935    0.0559   -0.1402    0.1112   -0.0830    0.1176   -0.0710    0.0272
       24 C3     2s         0.0149   -0.0206   -0.0024    0.0014   -0.0039    0.0032    0.1636   -0.2337    0.1402   -0.0573
       25 C3     *s        -0.0064    0.0104    0.0032   -0.0049    0.0051   -0.0058    0.1055   -0.1616    0.1072   -0.0467
       26 C3     2px        0.0002   -0.0003   -0.0001    0.0000    0.0002   -0.0001    0.0098    0.0553   -0.1282   -0.1851
       27 C3     *px        0.0002   -0.0001    0.0006   -0.0005   -0.0026    0.0019    0.0026    0.0031   -0.0093   -0.0234
       28 C3     2py       -0.0005    0.0007    0.0002   -0.0001    0.0003   -0.0002   -0.0532    0.0413    0.0031    0.0563
       29 C3     *py        0.0015   -0.0028   -0.0010    0.0018   -0.0002    0.0011   -0.0092    0.0050    0.0010    0.0130
       30 C3     *200      -0.0004    0.0004   -0.0002    0.0003    0.0000    0.0000    0.0057   -0.0075    0.0038   -0.0022
       31 C3     *110      -0.0002    0.0002    0.0002   -0.0002    0.0000   -0.0001   -0.0066    0.0020    0.0066    0.0119
       32 C3     *020      -0.0007    0.0009   -0.0000    0.0001    0.0000   -0.0000    0.0003    0.0027   -0.0037   -0.0021
       33 C3     *002      -0.0007    0.0008    0.0000    0.0000    0.0001   -0.0001   -0.0042    0.0053   -0.0027    0.0017
       34 C4     1s         0.7843    0.5769   -0.0935   -0.0559   -0.1099   -0.1411   -0.0830   -0.1176   -0.0710   -0.0272
       35 C4     2s         0.0204    0.0151   -0.0024   -0.0014   -0.0030   -0.0041    0.1636    0.2337    0.1402    0.0573
       36 C4     *s        -0.0092   -0.0080    0.0032    0.0049    0.0036    0.0068    0.1055    0.1616    0.1072    0.0467
       37 C4     2px        0.0003    0.0002   -0.0001   -0.0000    0.0002    0.0002    0.0057   -0.0583   -0.1276    0.1803
       38 C4     *px        0.0004    0.0002    0.0005    0.0003   -0.0020   -0.0026    0.0019   -0.0035   -0.0092    0.0224
       39 C4     2py        0.0007    0.0006   -0.0002   -0.0001   -0.0002   -0.0003    0.0538    0.0369   -0.0129    0.0703
       40 C4     *py       -0.0023   -0.0022    0.0010    0.0018   -0.0002    0.0010    0.0094    0.0047   -0.0017    0.0148
       41 C4     *200      -0.0005   -0.0003   -0.0002   -0.0002    0.0000   -0.0000    0.0052    0.0072    0.0043    0.0013
       42 C4     *110       0.0003    0.0002   -0.0003   -0.0003   -0.0000   -0.0001    0.0073    0.0035   -0.0054    0.0117
       43 C4     *020      -0.0009   -0.0007   -0.0001   -0.0001    0.0000    0.0000    0.0008   -0.0025   -0.0041    0.0030
       44 C4     *002      -0.0009   -0.0006    0.0000   -0.0000    0.0001    0.0001   -0.0042   -0.0053   -0.0027   -0.0017
       45 C5     1s         0.1012   -0.1397   -0.0375    0.0517    0.7700   -0.6041   -0.0509    0.1009   -0.1076   -0.0803
       46 C5     2s         0.0024   -0.0033   -0.0010    0.0014    0.0200   -0.0158    0.0994   -0.1977    0.2104    0.1606
       47 C5     *s         0.0015   -0.0027   -0.0002    0.0007   -0.0095    0.0085    0.0691   -0.1514    0.1789    0.1573
       48 C5     2px       -0.0001    0.0002   -0.0000    0.0000   -0.0000    0.0000    0.0503   -0.0827    0.0627   -0.0111
       49 C5     *px        0.0013   -0.0022   -0.0001    0.0005   -0.0013    0.0018    0.0023   -0.0052    0.0050   -0.0110
       50 C5     2py       -0.0000   -0.0000    0.0001    0.0000    0.0007   -0.0003    0.0065   -0.0354    0.0413    0.0579
       51 C5     *py       -0.0003    0.0008    0.0000   -0.0002   -0.0017    0.0002    0.0026   -0.0120    0.0121    0.0230
       52 C5     *200      -0.0001    0.0002    0.0001   -0.0001   -0.0006    0.0004    0.0036   -0.0067    0.0063    0.0038
       53 C5     *110      -0.0001    0.0002    0.0001   -0.0001   -0.0002    0.0001   -0.0010    0.0014   -0.0021   -0.0047
       54 C5     *020      -0.0002    0.0003    0.0001   -0.0001   -0.0009    0.0006   -0.0012    0.0019   -0.0007    0.0013
       55 C5     *002      -0.0001    0.0002    0.0000   -0.0000   -0.0009    0.0006   -0.0024    0.0049   -0.0052   -0.0039
       56 C6     1s         0.1388    0.1024   -0.0375   -0.0517    0.6053    0.7691   -0.0509   -0.1009   -0.1076    0.0803
       57 C6     2s         0.0033    0.0024   -0.0010   -0.0014    0.0157    0.0201    0.0994    0.1977    0.2104   -0.1606
       58 C6     *s         0.0022    0.0021   -0.0002   -0.0007   -0.0072   -0.0105    0.0691    0.1514    0.1789   -0.1573
       59 C6     2px       -0.0002   -0.0001    0.0000   -0.0000    0.0000    0.0000    0.0507    0.0852    0.0657    0.0066
       60 C6     *px        0.0019    0.0016   -0.0001   -0.0004   -0.0009   -0.0021    0.0025    0.0061    0.0059    0.0092
       61 C6     2py       -0.0000   -0.0000   -0.0001    0.0000   -0.0006   -0.0005   -0.0026   -0.0290   -0.0364    0.0585
       62 C6     *py        0.0007    0.0008   -0.0000   -0.0002    0.0015    0.0004   -0.0024   -0.0116   -0.0117    0.0238
       63 C6     *200      -0.0002   -0.0001    0.0001    0.0001   -0.0005   -0.0005    0.0035    0.0065    0.0061   -0.0035
       64 C6     *110       0.0002    0.0001   -0.0001   -0.0001    0.0002    0.0002    0.0017    0.0027    0.0031   -0.0051
       65 C6     *020      -0.0003   -0.0002    0.0001    0.0001   -0.0007   -0.0008   -0.0011   -0.0017   -0.0005   -0.0017
       66 C6     *002      -0.0002   -0.0002    0.0000    0.0000   -0.0008   -0.0008   -0.0024   -0.0049   -0.0052    0.0039
       67 H7     1s        -0.0001   -0.0000    0.0000    0.0000   -0.0001   -0.0003    0.0213    0.0558    0.0703   -0.0877
       68 H7     *s         0.0007    0.0006    0.0000   -0.0001    0.0017    0.0015    0.0005    0.0071    0.0150   -0.0296
       69 H8     1s        -0.0000    0.0000    0.0000   -0.0000   -0.0002    0.0002    0.0213   -0.0558    0.0703    0.0877
       70 H8     *s         0.0005   -0.0008    0.0000    0.0001    0.0020   -0.0010    0.0005   -0.0071    0.0150    0.0296
       71 H9     1s        -0.0000    0.0001   -0.0001    0.0001   -0.0000    0.0000    0.0627   -0.0291   -0.0616   -0.1016
       72 H9     *s         0.0005   -0.0006    0.0012   -0.0008    0.0000    0.0000    0.0063   -0.0082   -0.0133   -0.0302
       73 H10    1s        -0.0000   -0.0000   -0.0001   -0.0001   -0.0000   -0.0000    0.0627    0.0291   -0.0616    0.1016
       74 H10    *s         0.0007    0.0004    0.0012    0.0008    0.0000   -0.0000    0.0063    0.0082   -0.0133    0.0303

          Orbital           11        12        13        14        15        16        17        18        19        20    
          Energy           -0.7431   -0.6661   -0.6468   -0.5930   -0.5164   -0.4320   -0.3737    0.0381    0.0920    0.2516
          Occ. No.          2.0000    2.0000    2.0000    2.0000    2.0000    2.0000    2.0000    0.0000    0.0000    0.0000

        1 C1     1s        -0.0203   -0.0423    0.0137    0.0146   -0.0065    0.0075    0.0227   -0.0052   -0.0432    0.0559
        2 C1     2s         0.0390    0.0882   -0.0338   -0.0335    0.0090   -0.0173   -0.0560    0.0201    0.0844   -0.0695
        3 C1     *s         0.0246    0.0817    0.0104   -0.0461    0.0428   -0.0559   -0.0291   -0.0396    0.4123   -0.9831
        4 C1     2px        0.1792    0.1155    0.1547    0.2052    0.2745    0.0280    0.0266   -0.0705   -0.0728   -0.1601
        5 C1     *px        0.0602    0.0773    0.0664    0.0867    0.1633    0.0233   -0.0826   -0.0274    0.0100   -0.5668
        6 C1     2py       -0.1579    0.0594    0.3298   -0.0575   -0.0058    0.1248   -0.0044    0.1255    0.0107   -0.1141
        7 C1     *py       -0.0494    0.0393    0.1234   -0.0260   -0.0106    0.0344    0.0636    0.0461   -0.0981   -0.4296
        8 C1     *200      -0.0024    0.0035    0.0112    0.0036    0.0062    0.0073   -0.0053    0.0088    0.0067    0.0046
        9 C1     *110       0.0100    0.0146    0.0014    0.0066    0.0308    0.0049   -0.0029    0.0096   -0.0017    0.0123
       10 C1     *020       0.0017   -0.0007   -0.0049   -0.0020   -0.0033   -0.0052    0.0053   -0.0065   -0.0068   -0.0019
       11 C1     *002      -0.0007   -0.0017   -0.0008    0.0001   -0.0007   -0.0005   -0.0002    0.0009    0.0002    0.0015
       12 C2     1s        -0.0203    0.0423    0.0137    0.0146    0.0065    0.0075   -0.0227   -0.0052    0.0432    0.0559
       13 C2     2s         0.0390   -0.0882   -0.0339   -0.0335   -0.0090   -0.0173    0.0560    0.0201   -0.0844   -0.0695
       14 C2     *s         0.0246   -0.0817    0.0104   -0.0461   -0.0428   -0.0559    0.0291   -0.0396   -0.4123   -0.9830
       15 C2     2px        0.1667   -0.1197    0.1794    0.2003   -0.2733    0.0374   -0.0262   -0.0607    0.0718   -0.1684
       16 C2     *px        0.0563   -0.0801    0.0756    0.0845   -0.1620    0.0259    0.0775   -0.0238   -0.0025   -0.5979
       17 C2     2py        0.1712    0.0505   -0.3170    0.0730   -0.0267   -0.1223   -0.0064   -0.1305    0.0162    0.1016
       18 C2     *py        0.0539    0.0333   -0.1180    0.0325   -0.0231   -0.0325    0.0697   -0.0480   -0.0986    0.3851
       19 C2     *200      -0.0016   -0.0046    0.0112    0.0041   -0.0085    0.0076    0.0054    0.0094   -0.0065    0.0055
       20 C2     *110      -0.0105    0.0138    0.0011   -0.0057    0.0289   -0.0029   -0.0012   -0.0072   -0.0037   -0.0112
       21 C2     *020       0.0009    0.0018   -0.0049   -0.0025    0.0056   -0.0055   -0.0055   -0.0071    0.0066   -0.0028
       22 C2     *002      -0.0007    0.0017   -0.0008    0.0001    0.0007   -0.0005    0.0002    0.0009   -0.0002    0.0015
       23 C3     1s         0.0733    0.0587   -0.0245   -0.0160    0.0195    0.0483   -0.0535    0.0321    0.0227    0.0008
       24 C3     2s        -0.1544   -0.1247    0.0522    0.0311   -0.0427   -0.1092    0.1208   -0.0298   -0.0079   -0.0201
       25 C3     *s        -0.1343   -0.0897    0.0531    0.0250   -0.0642   -0.1104    0.0770   -0.3207   -0.2481   -0.0471
       26 C3     2px       -0.1058    0.0852    0.0910   -0.2403   -0.2362    0.0185    0.0269   -0.1092   -0.1082   -0.0064
       27 C3     *px       -0.0281    0.0166    0.0293   -0.0721   -0.0788    0.0019   -0.0014   -0.0486   -0.1438    0.1789
       28 C3     2py        0.0670    0.0386    0.0569    0.0490    0.0746   -0.1968    0.2668   -0.2509   -0.1965    0.0187
       29 C3     *py        0.0084   -0.0059    0.0301    0.0208    0.0308   -0.1614    0.2562   -0.3234   -0.2394    0.2349
       30 C3     *200      -0.0018    0.0010    0.0049    0.0003    0.0017   -0.0005    0.0006    0.0048    0.0047   -0.0107
       31 C3     *110       0.0055   -0.0070   -0.0043    0.0167    0.0147    0.0129   -0.0107   -0.0097   -0.0171    0.0015
       32 C3     *020      -0.0008    0.0003   -0.0050   -0.0038   -0.0037    0.0042   -0.0063    0.0030    0.0030    0.0068
       33 C3     *002       0.0026    0.0016   -0.0005   -0.0002    0.0007   -0.0013    0.0020   -0.0008   -0.0006   -0.0002
       34 C4     1s         0.0733   -0.0587   -0.0245   -0.0160   -0.0195    0.0483    0.0535    0.0321   -0.0227    0.0008
       35 C4     2s        -0.1544    0.1247    0.0522    0.0311    0.0427   -0.1092   -0.1208   -0.0298    0.0079   -0.0201
       36 C4     *s        -0.1343    0.0897    0.0531    0.0250    0.0642   -0.1104   -0.0770   -0.3207    0.2481   -0.0471
       37 C4     2px       -0.1004   -0.0879    0.0951   -0.2359    0.2299    0.0034   -0.0472   -0.1281    0.1229   -0.0050
       38 C4     *px       -0.0274   -0.0162    0.0315   -0.0703    0.0763   -0.0105   -0.0182   -0.0731    0.1617    0.1963
       39 C4     2py       -0.0749    0.0320   -0.0498   -0.0672    0.0924    0.1976    0.2639    0.2419   -0.1877   -0.0191
       40 C4     *py       -0.0105   -0.0071   -0.0278   -0.0263    0.0367    0.1610    0.2556    0.3188   -0.2277   -0.2206
       41 C4     *200      -0.0014   -0.0005    0.0046    0.0016   -0.0028    0.0005    0.0003    0.0041   -0.0033   -0.0104
       42 C4     *110      -0.0056   -0.0070    0.0058   -0.0159    0.0137   -0.0135   -0.0116    0.0098   -0.0171   -0.0042
       43 C4     *020      -0.0012   -0.0009   -0.0046   -0.0050    0.0048    0.0032    0.0054    0.0038   -0.0043    0.0066
       44 C4     *002       0.0026   -0.0016   -0.0005   -0.0002   -0.0007   -0.0013   -0.0020   -0.0008    0.0006   -0.0002
       45 C5     1s        -0.0644   -0.0346    0.0061    0.0009   -0.0138   -0.0511    0.0624    0.0148    0.0483    0.0299
       46 C5     2s         0.1297    0.0710   -0.0156   -0.0006    0.0275    0.1050   -0.1404    0.0074   -0.0728   -0.0688
       47 C5     *s         0.1414    0.0837   -0.0047   -0.0245    0.0286    0.1808   -0.1811   -0.1989   -0.4446   -0.1462
       48 C5     2px       -0.1354   -0.2467   -0.0571    0.2619    0.1747   -0.0200    0.0001    0.1097    0.1304    0.0011
       49 C5     *px       -0.0502   -0.0966   -0.0111    0.1012    0.0791   -0.0447    0.0615    0.1691    0.1830    0.2286
       50 C5     2py        0.0774    0.0890    0.0527   -0.0482   -0.0126   -0.2446    0.2230    0.1795    0.2591   -0.0447
       51 C5     *py        0.0259    0.0415    0.0257   -0.0199   -0.0116   -0.1726    0.1354    0.2434    0.2359   -0.1727
       52 C5     *200       0.0016    0.0000   -0.0008    0.0001   -0.0003   -0.0001   -0.0029    0.0068    0.0019    0.0018
       53 C5     *110      -0.0122   -0.0201   -0.0016    0.0212    0.0143   -0.0113    0.0144   -0.0134   -0.0075   -0.0029
       54 C5     *020       0.0040    0.0062    0.0018   -0.0050   -0.0027   -0.0052    0.0081    0.0004    0.0068    0.0020
       55 C5     *002      -0.0033   -0.0020   -0.0004    0.0006   -0.0005    0.0010   -0.0015   -0.0004   -0.0029   -0.0007
       56 C6     1s        -0.0644    0.0346    0.0061    0.0009    0.0138   -0.0511   -0.0624    0.0148   -0.0483    0.0299
       57 C6     2s         0.1297   -0.0710   -0.0156   -0.0006   -0.0275    0.1050    0.1404    0.0074    0.0728   -0.0688
       58 C6     *s         0.1414   -0.0837   -0.0047   -0.0245   -0.0286    0.1808    0.1811   -0.1989    0.4446   -0.1461
       59 C6     2px       -0.1291    0.2392   -0.0529    0.2574   -0.1732   -0.0386   -0.0171    0.1230   -0.1498   -0.0023
       60 C6     *px       -0.0481    0.0931   -0.0091    0.0994   -0.0780   -0.0577   -0.0716    0.1872   -0.2005    0.2148
       61 C6     2py       -0.0876    0.1076   -0.0569    0.0681   -0.0259    0.2423    0.2223   -0.1706    0.2484    0.0447
       62 C6     *py       -0.0296    0.0488   -0.0265    0.0275   -0.0176    0.1687    0.1303   -0.2298    0.2212    0.1897
       63 C6     *200       0.0007    0.0015   -0.0009    0.0017   -0.0007   -0.0010    0.0017    0.0057   -0.0014    0.0016
       64 C6     *110       0.0117   -0.0189    0.0012   -0.0201    0.0138    0.0120    0.0159    0.0142   -0.0067    0.0029
       65 C6     *020       0.0049   -0.0077    0.0019   -0.0066    0.0038   -0.0043   -0.0069    0.0015   -0.0073    0.0023
       66 C6     *002      -0.0033    0.0020   -0.0004    0.0006    0.0005    0.0010    0.0015   -0.0004    0.0029   -0.0007
       67 H7     1s         0.1385   -0.1739    0.0376   -0.1445    0.0819   -0.0425   -0.0271    0.0870   -0.0952    0.0094
       68 H7     *s         0.0736   -0.1095    0.0283   -0.1126    0.0733   -0.0401   -0.0491    0.1760   -0.3058    0.4486
       69 H8     1s         0.1385    0.1739    0.0376   -0.1445   -0.0819   -0.0425    0.0271    0.0870    0.0952    0.0094
       70 H8     *s         0.0736    0.1095    0.0283   -0.1126   -0.0733   -0.0401    0.0491    0.1760    0.3058    0.4486
       71 H9     1s         0.0628    0.1171    0.1553    0.0828    0.1820    0.0597   -0.0192    0.0516    0.0075    0.0292
       72 H9     *s         0.0363    0.0627    0.1068    0.0660    0.1507    0.0705    0.0012    0.1087   -0.0887    1.3740
       73 H10    1s         0.0628   -0.1171    0.1553    0.0828   -0.1820    0.0597    0.0192    0.0516   -0.0075    0.0292
       74 H10    *s         0.0363   -0.0628    0.1068    0.0660   -0.1507    0.0705   -0.0012    0.1087    0.0887    1.3740

          Orbital           21        22        23        24        25        26    
          Energy            0.2945    0.2965    0.3414    0.4164    0.4809    0.5169
          Occ. No.          0.0000    0.0000    0.0000    0.0000    0.0000    0.0000

        1 C1     1s        -0.0525   -0.0030    0.0579   -0.0584    0.0302    0.0464
        2 C1     2s         0.0978   -0.0351   -0.0634   -0.0041   -0.0294   -0.0431
        3 C1     *s         0.5393    0.3773   -1.1049    1.5123   -1.1523   -1.7337
        4 C1     2px        0.0212    0.1312   -0.1608   -0.0583    0.1389    0.0521
        5 C1     *px        0.7177    0.2596   -1.1086   -0.7669    0.2981   -0.1321
        6 C1     2py        0.0625    0.0070   -0.0493    0.0946   -0.0947    0.1699
        7 C1     *py        0.0645    0.1264   -0.3948    0.7017   -0.6621    1.5499
        8 C1     *200      -0.0033    0.0037   -0.0016   -0.0074    0.0003   -0.0129
        9 C1     *110       0.0036   -0.0101   -0.0088    0.0351   -0.0274    0.0052
       10 C1     *020      -0.0007   -0.0026    0.0032    0.0019    0.0022    0.0144
       11 C1     *002       0.0014   -0.0035    0.0016   -0.0013   -0.0031   -0.0026
       12 C2     1s         0.0525   -0.0030   -0.0579   -0.0584    0.0302   -0.0464
       13 C2     2s        -0.0978   -0.0351    0.0634   -0.0041   -0.0294    0.0431
       14 C2     *s        -0.5394    0.3772    1.1049    1.5122   -1.1523    1.7337
       15 C2     2px       -0.0260    0.1313    0.1641   -0.0509    0.1312   -0.0649
       16 C2     *px       -0.7206    0.2684    1.1355   -0.7111    0.2467    0.0133
       17 C2     2py        0.0607    0.0031   -0.0368   -0.0987    0.1051    0.1654
       18 C2     *py        0.0096   -0.1062   -0.3090   -0.7582    0.6830    1.5554
       19 C2     *200       0.0030    0.0029    0.0022   -0.0047   -0.0018    0.0123
       20 C2     *110       0.0039    0.0110   -0.0080   -0.0361    0.0268    0.0093
       21 C2     *020       0.0010   -0.0018   -0.0039   -0.0009    0.0043   -0.0139
       22 C2     *002      -0.0014   -0.0035   -0.0016   -0.0013   -0.0031    0.0026
       23 C3     1s         0.0134   -0.0207    0.0044    0.1016    0.0098    0.0600
       24 C3     2s        -0.0528    0.0125    0.0393   -0.1541    0.0010   -0.0281
       25 C3     *s         0.2680    0.3074   -0.5657   -2.3832   -1.3549   -2.2351
       26 C3     2px       -0.0059    0.0156    0.0260   -0.1047    0.2109    0.0512
       27 C3     *px        0.0491   -0.2406    0.4146   -0.0967    2.0642    1.1049
       28 C3     2py        0.0723   -0.0329   -0.0776    0.1231   -0.0772   -0.0668
       29 C3     *py       -0.3659    0.0805    0.0050    0.9882   -0.0435    0.2442
       30 C3     *200       0.0084   -0.0048   -0.0019   -0.0089   -0.0187    0.0094
       31 C3     *110      -0.0164    0.0136   -0.0052    0.0014    0.0120    0.0180
       32 C3     *020      -0.0020    0.0013    0.0002   -0.0002    0.0027   -0.0079
       33 C3     *002      -0.0032   -0.0013    0.0029   -0.0023    0.0054   -0.0024
       34 C4     1s        -0.0134   -0.0207   -0.0044    0.1016    0.0098   -0.0600
       35 C4     2s         0.0528    0.0125   -0.0393   -0.1541    0.0010    0.0281
       36 C4     *s        -0.2680    0.3073    0.5657   -2.3832   -1.3548    2.2350
       37 C4     2px        0.0003    0.0131   -0.0200   -0.0950    0.2044   -0.0460
       38 C4     *px       -0.0210   -0.2337   -0.4138   -0.0210    2.0548   -1.1203
       39 C4     2py        0.0726    0.0340   -0.0793   -0.1307    0.0931   -0.0705
       40 C4     *py       -0.3686   -0.0987   -0.0267   -0.9927    0.2010    0.1591
       41 C4     *200      -0.0071   -0.0037    0.0023   -0.0087   -0.0177   -0.0107
       42 C4     *110      -0.0177   -0.0144   -0.0048   -0.0027   -0.0151    0.0151
       43 C4     *020       0.0007    0.0002   -0.0006   -0.0004    0.0016    0.0092
       44 C4     *002       0.0032   -0.0013   -0.0029   -0.0023    0.0054    0.0024
       45 C5     1s        -0.0506    0.0675   -0.0226   -0.0302   -0.0555   -0.0536
       46 C5     2s         0.0555   -0.0667    0.0023   -0.0191    0.0204    0.0796
       47 C5     *s         0.8209   -1.2907    0.9695    0.8339    2.2508    1.6131
       48 C5     2px       -0.1031    0.1279   -0.0658    0.0395   -0.0888    0.1472
       49 C5     *px       -0.4949    0.3480   -0.0368    0.9881    1.6581    1.3886
       50 C5     2py        0.1625   -0.1547    0.1411   -0.0130   -0.0803    0.0122
       51 C5     *py        0.7044   -0.6129    0.5459   -0.1837    0.4957    0.1880
       52 C5     *200      -0.0067    0.0018    0.0036   -0.0056    0.0122    0.0013
       53 C5     *110       0.0027   -0.0010   -0.0099    0.0076   -0.0267   -0.0087
       54 C5     *020       0.0069    0.0007    0.0026    0.0080    0.0003    0.0025
       55 C5     *002      -0.0032    0.0053   -0.0043   -0.0040   -0.0022   -0.0002
       56 C6     1s         0.0506    0.0675    0.0226   -0.0302   -0.0555    0.0536
       57 C6     2s        -0.0555   -0.0668   -0.0023   -0.0191    0.0204   -0.0796
       58 C6     *s        -0.8207   -1.2908   -0.9696    0.8339    2.2507   -1.6132
       59 C6     2px        0.0903    0.1157    0.0548    0.0384   -0.0947   -0.1477
       60 C6     *px        0.4397    0.3003   -0.0049    0.9712    1.6910   -1.3990
       61 C6     2py        0.1699    0.1641    0.1457    0.0160    0.0733    0.0009
       62 C6     *py        0.7400    0.6378    0.5471    0.2586   -0.3677    0.0814
       63 C6     *200       0.0065    0.0017   -0.0028   -0.0049    0.0101   -0.0006
       64 C6     *110       0.0047    0.0011   -0.0100   -0.0096    0.0282   -0.0084
       65 C6     *020      -0.0066    0.0008   -0.0033    0.0073    0.0024   -0.0031
       66 C6     *002       0.0032    0.0053    0.0043   -0.0040   -0.0022    0.0002
       67 H7     1s         0.0087    0.0106   -0.0408   -0.0240    0.1197   -0.0500
       68 H7     *s         1.4104    1.4829    0.8804    0.3447    0.0571   -0.3116
       69 H8     1s        -0.0087    0.0106    0.0408   -0.0240    0.1197    0.0500
       70 H8     *s        -1.4107    1.4827   -0.8803    0.3447    0.0571    0.3116
       71 H9     1s        -0.0201   -0.0061   -0.0034    0.0570   -0.0597   -0.0591
       72 H9     *s        -0.9427   -0.5289    1.6697   -0.1339    0.0496   -0.3629
       73 H10    1s         0.0201   -0.0061    0.0034    0.0570   -0.0597    0.0591
       74 H10    *s         0.9429   -0.5287   -1.6697   -0.1339    0.0496    0.3630

      Molecular orbitals for symmetry species 2: a" 

          Orbital            1         2         3         4         5         6    
          Energy           -0.4735   -0.3899   -0.3139    0.0865    0.1924    0.3153
          Occ. No.          2.0000    2.0000    2.0000    0.0000    0.0000    0.0000

        1 C1     2pz        0.2764   -0.0838   -0.2631   -0.2639    0.0934   -0.2904
        2 C1     *pz        0.1894   -0.0617   -0.2306   -0.4210    0.1752   -0.6925
        3 C1     *101      -0.0057    0.0083   -0.0067    0.0041    0.0159   -0.0129
        4 C1     *011      -0.0121   -0.0097    0.0207   -0.0221   -0.0222   -0.0121
        5 C2     2pz        0.2764    0.0838   -0.2631    0.2639    0.0934    0.2904
        6 C2     *pz        0.1894    0.0617   -0.2306    0.4210    0.1752    0.6925
        7 C2     *101      -0.0066   -0.0075   -0.0051   -0.0024    0.0141    0.0137
        8 C2     *011       0.0117   -0.0103   -0.0212   -0.0223    0.0234   -0.0111
        9 C3     2pz        0.2088   -0.2886    0.1651   -0.1174   -0.2940    0.2675
       10 C3     *pz        0.1252   -0.2080    0.1444   -0.1674   -0.5492    0.5837
       11 C3     *101      -0.0019    0.0125   -0.0220   -0.0285   -0.0121   -0.0054
       12 C3     *011      -0.0114    0.0099   -0.0006    0.0062   -0.0021    0.0103
       13 C4     2pz        0.2088    0.2886    0.1651    0.1174   -0.2940   -0.2675
       14 C4     *pz        0.1252    0.2080    0.1444    0.1674   -0.5492   -0.5837
       15 C4     *101      -0.0028   -0.0132   -0.0220    0.0279   -0.0122    0.0046
       16 C4     *011       0.0112    0.0090   -0.0011    0.0084    0.0011    0.0106
       17 C5     2pz        0.1469   -0.2540    0.2511    0.2473    0.2141   -0.1640
       18 C5     *pz        0.1025   -0.1819    0.2159    0.3491    0.4953   -0.4089
       19 C5     *101       0.0122   -0.0176    0.0116   -0.0062   -0.0201    0.0223
       20 C5     *011       0.0043   -0.0098    0.0071    0.0080   -0.0029    0.0021
       21 C6     2pz        0.1469    0.2540    0.2511   -0.2473    0.2141    0.1640
       22 C6     *pz        0.1024    0.1819    0.2159   -0.3491    0.4953    0.4089
       23 C6     *101       0.0125    0.0183    0.0121    0.0056   -0.0202   -0.0224
       24 C6     *011      -0.0034   -0.0084   -0.0062    0.0085    0.0014    0.0004
--


++    Molecular charges:
      ------------------

      Mulliken charges per centre and basis function type
      ---------------------------------------------------

                C1      C2      C3      C4      C5      C6      H7      H8      H9      H10   
      1s       1.9966  1.9966  1.9971  1.9971  1.9971  1.9971  0.4921  0.4921  0.5247  0.5247
      2s       0.6683  0.6683  0.7319  0.7319  0.7293  0.7293  0.0000  0.0000  0.0000  0.0000
      2px      0.7015  0.7061  0.7181  0.7001  0.7141  0.6937  0.0000  0.0000  0.0000  0.0000
      2pz      0.5371  0.5371  0.5418  0.5418  0.5219  0.5219  0.0000  0.0000  0.0000  0.0000
      2py      0.7146  0.7100  0.4944  0.5124  0.4950  0.5154  0.0000  0.0000  0.0000  0.0000
      *s       0.5118  0.5118  0.5136  0.5136  0.6729  0.6729  0.2640  0.2640  0.2700  0.2700
      *px      0.3054  0.3120  0.1062  0.1105  0.2506  0.2537  0.0000  0.0000  0.0000  0.0000
      *110     0.0192  0.0178  0.0153  0.0148  0.0169  0.0159  0.0000  0.0000  0.0000  0.0000
      *020     0.0259  0.0262 -0.0090 -0.0067 -0.0018  0.0019  0.0000  0.0000  0.0000  0.0000
      *002    -0.0188 -0.0188 -0.0147 -0.0147 -0.0174 -0.0174  0.0000  0.0000  0.0000  0.0000
      *200     0.0230  0.0241  0.0273  0.0255  0.0277  0.0250  0.0000  0.0000  0.0000  0.0000
      *pz      0.4679  0.4679  0.4403  0.4403  0.4603  0.4603  0.0000  0.0000  0.0000  0.0000
      *py      0.2400  0.2333  0.4322  0.4279  0.3647  0.3616  0.0000  0.0000  0.0000  0.0000
      *101     0.0022  0.0019  0.0089  0.0090  0.0073  0.0077  0.0000  0.0000  0.0000  0.0000
      *011     0.0087  0.0090  0.0023  0.0022  0.0011  0.0007  0.0000  0.0000  0.0000  0.0000
      Total    6.2033  6.2033  6.0060  6.0060  6.2398  6.2398  0.7561  0.7561  0.7948  0.7948

      N-E     -0.2033 -0.2033 -0.0060 -0.0060 -0.2398 -0.2398  0.2439  0.2439  0.2052  0.2052

      Total electronic charge=   40.000000

      Total            charge=   -0.000000
--


++    Molecular properties:
      ---------------------

      Charge (e):
                      =   -0.0000
      Dipole Moment (Debye):
      Origin of the operator (Ang)=    0.0000    0.0000    0.0000
                   X=  1.7181E-01               Y=  6.5924E-03               Z=  0.0000E+00           Total=  1.7193E-01
      Quadrupole Moment (Debye*Ang):
      Origin of the operator (Ang)=   -4.1581    1.6011    0.0000
                  XX= -2.7879E+01              XY=  1.8872E-01              XZ=  0.0000E+00              YY= -3.2809E+01
                  YZ=  0.0000E+00              ZZ= -3.9232E+01
      In traceless form (Debye*Ang)
                  XX=  8.1415E+00              XY=  2.8308E-01              XZ=  0.0000E+00              YY=  7.4679E-01
                  YZ=  0.0000E+00              ZZ= -8.8883E+00
--


      Input file to MOLDEN was generated!

 ###############################################################################
 ###############################################################################
 ###                                                                         ###
 ###                                                                         ###
 ###    WARNING: RunFile label nBas                                          ###
 ###    was used       60 times                                              ###
 ###                                                                         ###
 ###                                                                         ###
 ###############################################################################
 ###############################################################################
--- Stop Module: scf at Tue Jun 25 13:16:43 2024 /rc=_RC_ALL_IS_WELL_ ---
*** files: transition_state.scf.molden transition_state.ScfOrb xmldump
    saved to directory /home/kenya/molcas_test/0625

*** symbolic link created: INPORB -> transition_state.ScfOrb
--- Start Module: rasscf at Tue Jun 25 13:16:43 2024 ---

()()()()()()()()()()()()()()()()()()()()()()()()()()()()()()()()()()()()()()()()()()()()()()()()()()

                                              &RASSCF

                                   only a single process is used
                       available to each process: 2.0 GB of memory, 1 thread
                                             pid: 31201
()()()()()()()()()()()()()()()()()()()()()()()()()()()()()()()()()()()()()()()()()()()()()()()()()()

 ###############################################################################
 ###############################################################################
 ###                                                                         ###
 ###                                                                         ###
 ###    ERROR: Read error during input preprocessing.                        ###
 ###                                                                         ###
 ###                                                                         ###
 ###############################################################################
 ###############################################################################
 ###############################################################################
 ###############################################################################
 ###                                                                         ###
 ###                                                                         ###
 ###    ERROR:  Failure reading after INACTIVE keyword.                      ###
 ###                                                                         ###
 ###                                                                         ###
 ###############################################################################
 ###############################################################################
  Error exit 9920 from PROC_INP.
 ###############################################################################
 ###############################################################################
 ###                                                                         ###
 ###                                                                         ###
 ###    ERROR: Input processing failed.                                      ###
 ###                                                                         ###
 ###                                                                         ###
 ###############################################################################
 ###############################################################################
  RASSCF Error: Proc_Inp failed unexpectedly.
  Check the output file for any previous messages
  that can help explain the failure.
  Here is a printing of the input file that
  was processed:
 &RASSCF                                                                         
 Inactive                                                                        
 14                                                                              
 RAS2                                                                            
 12                                                                              
 nActEl                                                                          
 12 0 0                                                                          
 LUMORB                                                                          
 End of input                                                                    
 ###############################################################################
 ###############################################################################
 ###                                                                         ###
 ###                                                                         ###
 ###    WARNING: There were warnings during the execution                    ###
 ###    Please, check the output with care!                                  ###
 ###                                                                         ###
 ###                                                                         ###
 ###############################################################################
 ###############################################################################
 ###############################################################################
 ###############################################################################
 ###                                                                         ###
 ###                                                                         ###
 ###    Location: AixCheck                                                   ###
 ###                                                                         ###
 ###                                                                         ###
 ###    Active unit: ORDINT                                                  ###
 ###                                              , should                   ###
 ###    have been closed!                                                    ###
 ###                                                                         ###
 ###                                                                         ###
 ###############################################################################
 ###############################################################################
--- Stop Module: rasscf at Tue Jun 25 13:16:44 2024 /rc=-6 ---

.########################.
.# Non-zero return code #.
.########################.

    Timing: Wall=3.91 User=3.30 System=0.58
