[Molden Format]
[N_Atoms]
                   10
[Atoms] (AU)
C1          1      6          -5.69174170      4.38970151      0.00000000
C2          2      6          -5.59391058      1.83110682      0.00000000
C3          3      6          -7.87052034      6.15846626      0.00000000
C4          4      6          -7.63129991     -0.09885157      0.00000000
C5          5      6         -10.31121501      5.58051242      0.00000000
C6          6      6         -10.10899542      0.29107451      0.00000000
H7          7      1         -11.39739179     -1.30190792      0.00000000
H8          8      1         -11.71747360      7.07048588      0.00000000
H9          9      1          -3.87577159      5.34544939      0.00000000
H10        10      1          -3.71028827      1.01680494      0.00000000
[Charge] (Mulliken)
 -0.20332324202244312     
 -0.20332222241004150     
  -5.9872675474395010E-003
  -5.9917787201486661E-003
 -0.23981713852673536     
 -0.23981713575226227     
  0.24388489219212317     
  0.24388529314426166     
  0.20524322790122984     
  0.20524537174119328     
[GTO] (AU)
   1
   s   6
  3.047524880E+03  1.834737132E-03
  4.573695180E+02  1.403732281E-02
  1.039486850E+02  6.884262227E-02
  2.921015530E+01  2.321844432E-01
  9.286662960E+00  4.679413484E-01
  3.163926960E+00  3.623119853E-01
   s   3
  7.868272350E+00 -1.193324198E-01
  1.881288540E+00 -1.608541517E-01
  5.442492580E-01  1.143456438E+00
   s   1
  1.687144782E-01  1.000000000E+00
   p   3
  7.868272350E+00  6.899906659E-02
  1.881288540E+00  3.164239610E-01
  5.442492580E-01  7.443082909E-01
   p   1
  1.687144782E-01  1.000000000E+00
   d   1
  8.000000000E-01  1.000000000E+00
 
   2
   s   6
  3.047524880E+03  1.834737132E-03
  4.573695180E+02  1.403732281E-02
  1.039486850E+02  6.884262227E-02
  2.921015530E+01  2.321844432E-01
  9.286662960E+00  4.679413484E-01
  3.163926960E+00  3.623119853E-01
   s   3
  7.868272350E+00 -1.193324198E-01
  1.881288540E+00 -1.608541517E-01
  5.442492580E-01  1.143456438E+00
   s   1
  1.687144782E-01  1.000000000E+00
   p   3
  7.868272350E+00  6.899906659E-02
  1.881288540E+00  3.164239610E-01
  5.442492580E-01  7.443082909E-01
   p   1
  1.687144782E-01  1.000000000E+00
   d   1
  8.000000000E-01  1.000000000E+00
 
   3
   s   6
  3.047524880E+03  1.834737132E-03
  4.573695180E+02  1.403732281E-02
  1.039486850E+02  6.884262227E-02
  2.921015530E+01  2.321844432E-01
  9.286662960E+00  4.679413484E-01
  3.163926960E+00  3.623119853E-01
   s   3
  7.868272350E+00 -1.193324198E-01
  1.881288540E+00 -1.608541517E-01
  5.442492580E-01  1.143456438E+00
   s   1
  1.687144782E-01  1.000000000E+00
   p   3
  7.868272350E+00  6.899906659E-02
  1.881288540E+00  3.164239610E-01
  5.442492580E-01  7.443082909E-01
   p   1
  1.687144782E-01  1.000000000E+00
   d   1
  8.000000000E-01  1.000000000E+00
 
   4
   s   6
  3.047524880E+03  1.834737132E-03
  4.573695180E+02  1.403732281E-02
  1.039486850E+02  6.884262227E-02
  2.921015530E+01  2.321844432E-01
  9.286662960E+00  4.679413484E-01
  3.163926960E+00  3.623119853E-01
   s   3
  7.868272350E+00 -1.193324198E-01
  1.881288540E+00 -1.608541517E-01
  5.442492580E-01  1.143456438E+00
   s   1
  1.687144782E-01  1.000000000E+00
   p   3
  7.868272350E+00  6.899906659E-02
  1.881288540E+00  3.164239610E-01
  5.442492580E-01  7.443082909E-01
   p   1
  1.687144782E-01  1.000000000E+00
   d   1
  8.000000000E-01  1.000000000E+00
 
   5
   s   6
  3.047524880E+03  1.834737132E-03
  4.573695180E+02  1.403732281E-02
  1.039486850E+02  6.884262227E-02
  2.921015530E+01  2.321844432E-01
  9.286662960E+00  4.679413484E-01
  3.163926960E+00  3.623119853E-01
   s   3
  7.868272350E+00 -1.193324198E-01
  1.881288540E+00 -1.608541517E-01
  5.442492580E-01  1.143456438E+00
   s   1
  1.687144782E-01  1.000000000E+00
   p   3
  7.868272350E+00  6.899906659E-02
  1.881288540E+00  3.164239610E-01
  5.442492580E-01  7.443082909E-01
   p   1
  1.687144782E-01  1.000000000E+00
   d   1
  8.000000000E-01  1.000000000E+00
 
   6
   s   6
  3.047524880E+03  1.834737132E-03
  4.573695180E+02  1.403732281E-02
  1.039486850E+02  6.884262227E-02
  2.921015530E+01  2.321844432E-01
  9.286662960E+00  4.679413484E-01
  3.163926960E+00  3.623119853E-01
   s   3
  7.868272350E+00 -1.193324198E-01
  1.881288540E+00 -1.608541517E-01
  5.442492580E-01  1.143456438E+00
   s   1
  1.687144782E-01  1.000000000E+00
   p   3
  7.868272350E+00  6.899906659E-02
  1.881288540E+00  3.164239610E-01
  5.442492580E-01  7.443082909E-01
   p   1
  1.687144782E-01  1.000000000E+00
   d   1
  8.000000000E-01  1.000000000E+00
 
   7
   s   3
  1.873113696E+01  3.349460434E-02
  2.825394365E+00  2.347269535E-01
  6.401216923E-01  8.137573261E-01
   s   1
  1.612777588E-01  1.000000000E+00
 
   8
   s   3
  1.873113696E+01  3.349460434E-02
  2.825394365E+00  2.347269535E-01
  6.401216923E-01  8.137573261E-01
   s   1
  1.612777588E-01  1.000000000E+00
 
   9
   s   3
  1.873113696E+01  3.349460434E-02
  2.825394365E+00  2.347269535E-01
  6.401216923E-01  8.137573261E-01
   s   1
  1.612777588E-01  1.000000000E+00
 
  10
   s   3
  1.873113696E+01  3.349460434E-02
  2.825394365E+00  2.347269535E-01
  6.401216923E-01  8.137573261E-01
   s   1
  1.612777588E-01  1.000000000E+00
 
[MO]
Sym=     1a' 
Ene=   -11.2800
Spin= Alpha
Occup=    2.00000
   1         0.08733818
   2         0.00232855
   3         0.00113932
   4         0.00018519
   5         0.00000790
   6         0.00000000
   7        -0.00098919
   8         0.00009122
   9         0.00000000
  10        -0.00047442
  11        -0.00041337
  12        -0.00037790
  13         0.00015044
  14         0.00000000
  15         0.00000000
  16         0.10694739
  17         0.00287729
  18         0.00218440
  19         0.00021157
  20         0.00003864
  21         0.00000000
  22        -0.00163106
  23        -0.00028593
  24         0.00000000
  25        -0.00058775
  26        -0.00063571
  27        -0.00046044
  28        -0.00025539
  29         0.00000000
  30         0.00000000
  31         0.57247755
  32         0.01489005
  33        -0.00637268
  34         0.00022972
  35        -0.00047981
  36         0.00000000
  37         0.00021068
  38         0.00152068
  39         0.00000000
  40        -0.00064166
  41        -0.00122464
  42        -0.00113218
  43        -0.00015076
  44         0.00000000
  45         0.00000000
  46         0.78431882
  47         0.02042608
  48        -0.00922459
  49         0.00026280
  50         0.00070190
  51         0.00000000
  52         0.00040540
  53        -0.00226342
  54         0.00000000
  55        -0.00087826
  56        -0.00162105
  57        -0.00152316
  58         0.00028292
  59         0.00000000
  60         0.00000000
  61         0.10122521
  62         0.00241739
  63         0.00149075
  64        -0.00013131
  65        -0.00000590
  66         0.00000000
  67         0.00134625
  68        -0.00029080
  69         0.00000000
  70        -0.00017217
  71        -0.00038081
  72        -0.00024559
  73        -0.00008947
  74         0.00000000
  75         0.00000000
  76         0.13876196
  77         0.00329597
  78         0.00222644
  79        -0.00017342
  80        -0.00000818
  81         0.00000000
  82         0.00189625
  83         0.00065615
  84         0.00000000
  85        -0.00026476
  86        -0.00050158
  87        -0.00034330
  88         0.00015478
  89         0.00000000
  90         0.00000000
  91        -0.00005803
  92         0.00073016
  93        -0.00004859
  94         0.00051153
  95        -0.00002139
  96         0.00051871
  97        -0.00003730
  98         0.00066569
Sym=     2a' 
Ene=   -11.2800
Spin= Alpha
Occup=    2.00000
   1        -0.07826401
   2        -0.00217212
   3        -0.00362333
   4        -0.00012349
   5         0.00009867
   6         0.00000000
   7         0.00232690
   8        -0.00024316
   9         0.00000000
  10         0.00055946
  11         0.00068556
  12         0.00033096
  13        -0.00037356
  14         0.00000000
  15         0.00000000
  16         0.04808294
  17         0.00136344
  18         0.00310741
  19         0.00005400
  20         0.00010083
  21         0.00000000
  22        -0.00189631
  23        -0.00034985
  24         0.00000000
  25        -0.00034915
  26        -0.00056805
  27        -0.00020077
  28        -0.00029457
  29         0.00000000
  30         0.00000000
  31        -0.78756277
  32        -0.02057037
  33         0.01039420
  34        -0.00031904
  35         0.00073405
  36         0.00000000
  37        -0.00010038
  38        -0.00276595
  39         0.00000000
  40         0.00077127
  41         0.00160637
  42         0.00146535
  43         0.00023312
  44         0.00000000
  45         0.00000000
  46         0.57694064
  47         0.01508806
  48        -0.00797320
  49         0.00019138
  50         0.00057032
  51         0.00000000
  52         0.00019787
  53        -0.00216595
  54         0.00000000
  55        -0.00056729
  56        -0.00113261
  57        -0.00105313
  58         0.00022880
  59         0.00000000
  60         0.00000000
  61        -0.13972700
  62        -0.00327847
  63        -0.00265523
  64         0.00015965
  65        -0.00000190
  66         0.00000000
  67        -0.00216948
  68         0.00076652
  69         0.00000000
  70         0.00026958
  71         0.00052062
  72         0.00036081
  73         0.00015474
  74         0.00000000
  75         0.00000000
  76         0.10241603
  77         0.00239010
  78         0.00207883
  79        -0.00011173
  80        -0.00001212
  81         0.00000000
  82         0.00160540
  83         0.00076696
  84         0.00000000
  85        -0.00022153
  86        -0.00036368
  87        -0.00026928
  88         0.00013438
  89         0.00000000
  90         0.00000000
  91        -0.00002217
  92         0.00060800
  93         0.00003873
  94        -0.00080091
  95         0.00005578
  96        -0.00056533
  97        -0.00004667
  98         0.00038144
Sym=     3a' 
Ene=   -11.2770
Spin= Alpha
Occup=    2.00000
   1         0.69660532
   2         0.01876306
   3        -0.00611079
   4        -0.00028676
   5         0.00025640
   6         0.00000000
   7         0.00054306
   8        -0.00091731
   9         0.00000000
  10        -0.00137640
  11        -0.00116626
  12        -0.00161269
  13        -0.00007968
  14         0.00000000
  15         0.00000000
  16         0.69671303
  17         0.01876604
  18        -0.00611286
  19        -0.00026639
  20        -0.00027753
  21         0.00000000
  22         0.00047179
  23         0.00095576
  24         0.00000000
  25        -0.00138584
  26        -0.00115710
  27        -0.00161292
  28         0.00006027
  29         0.00000000
  30         0.00000000
  31        -0.09346720
  32        -0.00238165
  33         0.00324216
  34        -0.00010832
  35         0.00024075
  36         0.00000000
  37         0.00060562
  38        -0.00096005
  39         0.00000000
  40        -0.00035960
  41        -0.00006353
  42         0.00003688
  43         0.00022721
  44         0.00000000
  45         0.00000000
  46        -0.09346388
  47        -0.00238156
  48         0.00324292
  49        -0.00008960
  50        -0.00024831
  51         0.00000000
  52         0.00053050
  53         0.00100373
  54         0.00000000
  55        -0.00032799
  56        -0.00009527
  57         0.00003685
  58        -0.00025062
  59         0.00000000
  60         0.00000000
  61        -0.03753196
  62        -0.00100520
  63        -0.00024026
  64        -0.00000306
  65         0.00005805
  66         0.00000000
  67        -0.00009447
  68         0.00001516
  69         0.00000000
  70         0.00013329
  71         0.00011178
  72         0.00003175
  73         0.00007810
  74         0.00000000
  75         0.00000000
  76        -0.03750527
  77        -0.00100451
  78        -0.00024074
  79         0.00000138
  80        -0.00005813
  81         0.00000000
  82        -0.00009314
  83        -0.00002233
  84         0.00000000
  85         0.00014344
  86         0.00010157
  87         0.00003169
  88        -0.00007530
  89         0.00000000
  90         0.00000000
  91         0.00003568
  92         0.00003719
  93         0.00003569
  94         0.00003713
  95        -0.00006187
  96         0.00123094
  97        -0.00006190
  98         0.00123109
Sym=     4a' 
Ene=   -11.2760
Spin= Alpha
Occup=    2.00000
   1        -0.70026359
   2        -0.01940039
   3         0.01359784
   4         0.00030446
   5         0.00010296
   6         0.00000000
   7        -0.00247323
   8        -0.00200599
   9         0.00000000
  10         0.00099423
  11         0.00061015
  12         0.00145696
  13         0.00021579
  14         0.00000000
  15         0.00000000
  16         0.70016263
  17         0.01939767
  18        -0.01359685
  19        -0.00031139
  20         0.00007946
  21         0.00000000
  22         0.00261913
  23        -0.00181151
  24         0.00000000
  25        -0.00102023
  26        -0.00058377
  27        -0.00145673
  28         0.00017948
  29         0.00000000
  30         0.00000000
  31         0.05592188
  32         0.00142254
  33        -0.00486133
  34         0.00002783
  35        -0.00010626
  36         0.00000000
  37        -0.00048471
  38         0.00177176
  39         0.00000000
  40         0.00046476
  41         0.00017303
  42         0.00003728
  43        -0.00024015
  44         0.00000000
  45         0.00000000
  46        -0.05592090
  47        -0.00142253
  48         0.00486131
  49        -0.00001959
  50        -0.00010805
  51         0.00000000
  52         0.00034767
  53         0.00180342
  54         0.00000000
  55        -0.00043134
  56        -0.00020638
  57        -0.00003727
  58        -0.00026295
  59         0.00000000
  60         0.00000000
  61         0.05174231
  62         0.00138976
  63         0.00068724
  64         0.00002507
  65         0.00001199
  66         0.00000000
  67         0.00046055
  68        -0.00016209
  69         0.00000000
  70        -0.00014582
  71        -0.00018389
  72        -0.00006687
  73        -0.00006931
  74         0.00000000
  75         0.00000000
  76        -0.05165366
  77        -0.00138745
  78        -0.00068821
  79        -0.00002591
  80         0.00000997
  81         0.00000000
  82        -0.00044696
  83        -0.00019660
  84         0.00000000
  85         0.00015504
  86         0.00017435
  87         0.00006669
  88        -0.00007181
  89         0.00000000
  90         0.00000000
  91         0.00002247
  92        -0.00007632
  93        -0.00002249
  94         0.00007653
  95         0.00011988
  96        -0.00075630
  97        -0.00011989
  98         0.00075611
Sym=     5a' 
Ene=   -11.2750
Spin= Alpha
Occup=    2.00000
   1         0.02527038
   2         0.00058602
   3        -0.00001025
   4        -0.00002206
   5        -0.00000014
   6         0.00000000
   7         0.00006646
   8         0.00053144
   9         0.00000000
  10         0.00007568
  11         0.00002909
  12        -0.00006043
  13        -0.00008296
  14         0.00000000
  15         0.00000000
  16         0.01542035
  17         0.00031735
  18         0.00059962
  19        -0.00002075
  20        -0.00000463
  21         0.00000000
  22        -0.00005067
  23        -0.00029886
  24         0.00000000
  25         0.00004986
  26         0.00002581
  27        -0.00004579
  28         0.00006751
  29         0.00000000
  30         0.00000000
  31        -0.14018387
  32        -0.00389995
  33         0.00509331
  34         0.00016231
  35         0.00028406
  36         0.00000000
  37        -0.00256374
  38        -0.00024261
  39         0.00000000
  40         0.00000093
  41         0.00007307
  42         0.00020148
  43         0.00003840
  44         0.00000000
  45         0.00000000
  46        -0.10986380
  47        -0.00302150
  48         0.00357805
  49         0.00015153
  50        -0.00021434
  51         0.00000000
  52        -0.00202207
  53        -0.00018761
  54         0.00000000
  55         0.00002410
  56         0.00005043
  57         0.00017483
  58        -0.00002579
  59         0.00000000
  60         0.00000000
  61         0.77001624
  62         0.01999588
  63        -0.00952028
  64        -0.00004690
  65         0.00069915
  66         0.00000000
  67        -0.00128376
  68        -0.00169077
  69         0.00000000
  70        -0.00100265
  71        -0.00153328
  72        -0.00162404
  73        -0.00016106
  74         0.00000000
  75         0.00000000
  76         0.60531317
  77         0.01568333
  78        -0.00723221
  79         0.00000265
  80        -0.00060404
  81         0.00000000
  82        -0.00093204
  83         0.00153695
  84         0.00000000
  85        -0.00083787
  86        -0.00120840
  87        -0.00131389
  88         0.00016440
  89         0.00000000
  90         0.00000000
  91        -0.00010182
  92         0.00170403
  93        -0.00016191
  94         0.00200739
  95        -0.00004066
  96         0.00000969
  97        -0.00003723
  98         0.00001062
Sym=     6a' 
Ene=   -11.2750
Spin= Alpha
Occup=    2.00000
   1        -0.03830153
   2        -0.00105695
   3         0.00256985
   4         0.00000145
   5         0.00001335
   6         0.00000000
   7        -0.00058131
   8        -0.00093873
   9         0.00000000
  10        -0.00006337
  11        -0.00004752
  12         0.00005404
  13         0.00006742
  14         0.00000000
  15         0.00000000
  16         0.04315826
  17         0.00116467
  18        -0.00249875
  19        -0.00000756
  20         0.00001247
  21         0.00000000
  22         0.00065791
  23        -0.00099046
  24         0.00000000
  25         0.00006812
  26         0.00006444
  27        -0.00006674
  28         0.00008642
  29         0.00000000
  30         0.00000000
  31         0.11116470
  32         0.00324076
  33        -0.00579121
  34        -0.00009727
  35        -0.00021421
  36         0.00000000
  37         0.00194746
  38         0.00113337
  39         0.00000000
  40         0.00008430
  41        -0.00007289
  42        -0.00008818
  43        -0.00005958
  44         0.00000000
  45         0.00000000
  46        -0.14109905
  47        -0.00406945
  48         0.00683054
  49         0.00015355
  50        -0.00026430
  51         0.00000000
  52        -0.00257967
  53         0.00096422
  54         0.00000000
  55        -0.00007191
  56         0.00007817
  57         0.00013321
  58        -0.00008108
  59         0.00000000
  60         0.00000000
  61        -0.60413954
  62        -0.01583856
  63         0.00853203
  64         0.00000892
  65        -0.00032494
  66         0.00000000
  67         0.00184011
  68         0.00016597
  69         0.00000000
  70         0.00065916
  71         0.00110755
  72         0.00111680
  73         0.00011247
  74         0.00000000
  75         0.00000000
  76         0.76911831
  77         0.02011850
  78        -0.01054129
  79         0.00001701
  80        -0.00048117
  81         0.00000000
  82        -0.00212808
  83         0.00039984
  84         0.00000000
  85        -0.00090031
  86        -0.00141609
  87        -0.00146923
  88         0.00019500
  89         0.00000000
  90         0.00000000
  91        -0.00026633
  92         0.00148748
  93         0.00023468
  94        -0.00104225
  95         0.00000958
  96         0.00000533
  97        -0.00001892
  98        -0.00000291
Sym=     7a' 
Ene=    -1.1036
Spin= Alpha
Occup=    2.00000
   1        -0.12843080
   2         0.24955789
   3         0.17368384
   4        -0.02309657
   5        -0.05655855
   6         0.00000000
   7         0.00164178
   8        -0.00090848
   9         0.00000000
  10         0.00447872
  11         0.01358215
  12        -0.01085157
  13        -0.00178884
  14         0.00000000
  15         0.00000000
  16        -0.12842987
  17         0.24955611
  18         0.17368292
  19        -0.02734625
  20         0.05463135
  21         0.00000000
  22         0.00156688
  23         0.00103164
  24         0.00000000
  25         0.00429594
  26         0.01376485
  27        -0.01085149
  28         0.00096725
  29         0.00000000
  30         0.00000000
  31        -0.08302290
  32         0.16360122
  33         0.10551305
  34         0.00982662
  35        -0.05320280
  36         0.00000000
  37         0.00264561
  38        -0.00923097
  39         0.00000000
  40         0.00984795
  41         0.00046376
  42        -0.00731030
  43        -0.00659806
  44         0.00000000
  45         0.00000000
  46        -0.08302086
  47         0.16359713
  48         0.10551037
  49         0.00573559
  50         0.05379639
  51         0.00000000
  52         0.00193342
  53         0.00940580
  54         0.00000000
  55         0.00892321
  56         0.00138847
  57        -0.00731012
  58         0.00734592
  59         0.00000000
  60         0.00000000
  61        -0.05085243
  62         0.09935634
  63         0.06912754
  64         0.05030941
  65         0.00648206
  66         0.00000000
  67         0.00226518
  68         0.00260311
  69         0.00000000
  70         0.00622186
  71        -0.00205849
  72        -0.00414544
  73        -0.00100012
  74         0.00000000
  75         0.00000000
  76        -0.05085137
  77         0.09935421
  78         0.06912637
  79         0.05065623
  80        -0.00262201
  81         0.00000000
  82         0.00245726
  83        -0.00242258
  84         0.00000000
  85         0.00604156
  86        -0.00187830
  87        -0.00414534
  88         0.00171631
  89         0.00000000
  90         0.00000000
  91         0.02126026
  92         0.00048691
  93         0.02126064
  94         0.00048700
  95         0.06273980
  96         0.00625706
  97         0.06274042
  98         0.00625736
Sym=     8a' 
Ene=    -1.0256
Spin= Alpha
Occup=    2.00000
   1         0.04675669
   2        -0.08976114
   3        -0.07097883
   4         0.04040145
   5        -0.06415610
   6         0.00000000
   7         0.01294328
   8        -0.01294247
   9         0.00000000
  10        -0.00879371
  11        -0.00143428
  12         0.00487858
  13         0.00644142
  14         0.00000000
  15         0.00000000
  16        -0.04675906
  17         0.08976570
  18         0.07098226
  19        -0.03538333
  20        -0.06705055
  21         0.00000000
  22        -0.01191709
  23        -0.01389254
  24         0.00000000
  25         0.00790153
  26         0.00232682
  27        -0.00487877
  28         0.00701307
  29         0.00000000
  30         0.00000000
  31         0.11761582
  32        -0.23369660
  33        -0.16157922
  34         0.05529139
  35         0.04126121
  36         0.00000000
  37         0.00308650
  38         0.00497167
  39         0.00000000
  40        -0.01292423
  41         0.00475719
  42         0.00915974
  43         0.00201319
  44         0.00000000
  45         0.00000000
  46        -0.11761601
  47         0.23369694
  48         0.16157992
  49        -0.05828041
  50         0.03691951
  51         0.00000000
  52        -0.00345687
  53         0.00472174
  54         0.00000000
  55         0.01255586
  56        -0.00438862
  57        -0.00915978
  58         0.00354402
  59         0.00000000
  60         0.00000000
  61         0.10089212
  62        -0.19769722
  63        -0.15142816
  64        -0.08270800
  65        -0.03543956
  66         0.00000000
  67        -0.00518878
  68        -0.01204418
  69         0.00000000
  70        -0.01159663
  71         0.00325710
  72         0.00844136
  73         0.00142428
  74         0.00000000
  75         0.00000000
  76        -0.10089239
  77         0.19769763
  78         0.15142840
  79         0.08517229
  80        -0.02902174
  81         0.00000000
  82         0.00609310
  83        -0.01161291
  84         0.00000000
  85         0.01132224
  86        -0.00298271
  87        -0.00844138
  88         0.00271338
  89         0.00000000
  90         0.00000000
  91         0.05584359
  92         0.00713608
  93        -0.05584322
  94        -0.00713609
  95        -0.02908528
  96        -0.00816238
  97         0.02908745
  98         0.00816292
Sym=     9a' 
Ene=    -0.9787
Spin= Alpha
Occup=    2.00000
   1         0.08354477
   2        -0.16372809
   3        -0.14151193
   4        -0.05601235
   5         0.08551948
   6         0.00000000
   7        -0.01635939
   8         0.00471890
   9         0.00000000
  10         0.00173204
  11        -0.00957498
  12         0.00628875
  13        -0.00472083
  14         0.00000000
  15         0.00000000
  16         0.08354547
  17        -0.16372965
  18        -0.14151258
  19        -0.04931954
  20        -0.08954576
  21         0.00000000
  22        -0.01595094
  23        -0.00595409
  24         0.00000000
  25         0.00104353
  26        -0.00888649
  27         0.00628884
  28         0.00566005
  29         0.00000000
  30         0.00000000
  31        -0.07096333
  32         0.14024453
  33         0.10715039
  34        -0.12821917
  35         0.00313047
  36         0.00000000
  37        -0.00925830
  38         0.00097878
  39         0.00000000
  40         0.00656671
  41        -0.00635995
  42        -0.00463206
  43         0.00663014
  44         0.00000000
  45         0.00000000
  46        -0.07096432
  47         0.14024660
  48         0.10715190
  49        -0.12760724
  50        -0.01291050
  51         0.00000000
  52        -0.00915690
  53        -0.00168279
  54         0.00000000
  55         0.00736563
  56        -0.00715891
  57        -0.00463215
  58        -0.00541663
  59         0.00000000
  60         0.00000000
  61        -0.10756987
  62         0.21042794
  63         0.17887421
  64         0.06274500
  65         0.04126223
  66         0.00000000
  67         0.00502121
  68         0.01209649
  69         0.00000000
  70         0.01084050
  71        -0.00121552
  72        -0.00905161
  73        -0.00205946
  74         0.00000000
  75         0.00000000
  76        -0.10757116
  77         0.21043036
  78         0.17887584
  79         0.06571270
  80        -0.03635211
  81         0.00000000
  82         0.00593007
  83        -0.01167787
  84         0.00000000
  85         0.01049882
  86        -0.00087370
  87        -0.00905172
  88         0.00309525
  89         0.00000000
  90         0.00000000
  91         0.07028842
  92         0.01502615
  93         0.07028724
  94         0.01502592
  95        -0.06163966
  96        -0.01331887
  97        -0.06164111
  98        -0.01331923
Sym=    10a' 
Ene=    -0.8521
Spin= Alpha
Occup=    2.00000
   1         0.09528934
   2        -0.19193939
   3        -0.15703251
   4         0.00798053
   5        -0.13590795
   6         0.00000000
   7        -0.01133163
   8        -0.07727666
   9         0.00000000
  10        -0.01382959
  11        -0.00192373
  12         0.00798524
  13         0.00123655
  14         0.00000000
  15         0.00000000
  16        -0.09528925
  17         0.19193932
  18         0.15703137
  19         0.00242540
  20        -0.13611828
  21         0.00000000
  22         0.01720030
  23        -0.07618474
  24         0.00000000
  25         0.01359740
  26         0.00215604
  27        -0.00798524
  28         0.00226837
  29         0.00000000
  30         0.00000000
  31         0.02723244
  32        -0.05726278
  33        -0.04669745
  34        -0.18512743
  35         0.05631526
  36         0.00000000
  37        -0.02343192
  38         0.01300222
  39         0.00000000
  40        -0.00375585
  41        -0.00370385
  42         0.00294191
  43         0.01186570
  44         0.00000000
  45         0.00000000
  46        -0.02723160
  47         0.05726083
  48         0.04669729
  49         0.18028237
  50         0.07028241
  51         0.00000000
  52         0.02237095
  53         0.01475324
  54         0.00000000
  55         0.00219116
  56         0.00526859
  57        -0.00294181
  58         0.01173169
  59         0.00000000
  60         0.00000000
  61        -0.08033242
  62         0.16057100
  63         0.15728853
  64        -0.01105849
  65         0.05785363
  66         0.00000000
  67        -0.01101309
  68         0.02300811
  69         0.00000000
  70         0.00662687
  71         0.00228846
  72        -0.00677374
  73        -0.00472436
  74         0.00000000
  75         0.00000000
  76         0.08033006
  77        -0.16056625
  78        -0.15728321
  79         0.00660922
  80         0.05852767
  81         0.00000000
  82         0.00922403
  83         0.02378098
  84         0.00000000
  85        -0.00597858
  86        -0.00293658
  87         0.00677354
  88        -0.00505053
  89         0.00000000
  90         0.00000000
  91        -0.08769317
  92        -0.02956712
  93         0.08769537
  94         0.02956793
  95        -0.10156421
  96        -0.03024935
  97         0.10156738
  98         0.03025028
Sym=    11a' 
Ene=    -0.7431
Spin= Alpha
Occup=    2.00000
   1        -0.02025337
   2         0.03904380
   3         0.02459056
   4         0.17924408
   5        -0.15792570
   6         0.00000000
   7         0.06023823
   8        -0.04939701
   9         0.00000000
  10        -0.00410212
  11         0.00298269
  12        -0.00122306
  13         0.01003695
  14         0.00000000
  15         0.00000000
  16        -0.02025210
  17         0.03904167
  18         0.02458674
  19         0.16666236
  20         0.17115267
  21         0.00000000
  22         0.05629110