[Molden Format]
[N_Atoms]
                   10
[Atoms] (AU)
C1          1      6          -5.30493366      3.26136493      0.00379835
C2          2      6          -3.45498627      1.53457100     -0.03643392
H3          3      1          -7.26121594      2.64576775     -0.01235881
H4          4      1          -4.94067006      5.27396105      0.05243990
C5          5      6          -0.70955437      2.11826960     -0.02050353
H6          6      1          -3.99011892     -0.44574860     -0.08441407
C7          7      6           0.27729841      4.44822632      0.03616936
H8          8      1           0.58541826      0.52706351     -0.05784452
H9          9      1          -0.87473533      6.13843517      0.07598589
H10        10      1           2.31487671      4.68177758      0.04319914
[Charge] (Mulliken)
   0.0000000000000000     
   0.0000000000000000     
   0.0000000000000000     
   0.0000000000000000     
   0.0000000000000000     
   0.0000000000000000     
   0.0000000000000000     
   0.0000000000000000     
   0.0000000000000000     
   0.0000000000000000     
[GTO] (AU)
   1
   s   6
  3.047524880E+03  1.834737132E-03
  4.573695180E+02  1.403732281E-02
  1.039486850E+02  6.884262227E-02
  2.921015530E+01  2.321844432E-01
  9.286662960E+00  4.679413484E-01
  3.163926960E+00  3.623119853E-01
   s   3
  7.868272350E+00 -1.193324198E-01
  1.881288540E+00 -1.608541517E-01
  5.442492580E-01  1.143456438E+00
   s   1
  1.687144782E-01  1.000000000E+00
   p   3
  7.868272350E+00  6.899906659E-02
  1.881288540E+00  3.164239610E-01
  5.442492580E-01  7.443082909E-01
   p   1
  1.687144782E-01  1.000000000E+00
   d   1
  8.000000000E-01  1.000000000E+00
 
   2
   s   6
  3.047524880E+03  1.834737132E-03
  4.573695180E+02  1.403732281E-02
  1.039486850E+02  6.884262227E-02
  2.921015530E+01  2.321844432E-01
  9.286662960E+00  4.679413484E-01
  3.163926960E+00  3.623119853E-01
   s   3
  7.868272350E+00 -1.193324198E-01
  1.881288540E+00 -1.608541517E-01
  5.442492580E-01  1.143456438E+00
   s   1
  1.687144782E-01  1.000000000E+00
   p   3
  7.868272350E+00  6.899906659E-02
  1.881288540E+00  3.164239610E-01
  5.442492580E-01  7.443082909E-01
   p   1
  1.687144782E-01  1.000000000E+00
   d   1
  8.000000000E-01  1.000000000E+00
 
   3
   s   3
  1.873113696E+01  3.349460434E-02
  2.825394365E+00  2.347269535E-01
  6.401216923E-01  8.137573261E-01
   s   1
  1.612777588E-01  1.000000000E+00
 
   4
   s   3
  1.873113696E+01  3.349460434E-02
  2.825394365E+00  2.347269535E-01
  6.401216923E-01  8.137573261E-01
   s   1
  1.612777588E-01  1.000000000E+00
 
   5
   s   6
  3.047524880E+03  1.834737132E-03
  4.573695180E+02  1.403732281E-02
  1.039486850E+02  6.884262227E-02
  2.921015530E+01  2.321844432E-01
  9.286662960E+00  4.679413484E-01
  3.163926960E+00  3.623119853E-01
   s   3
  7.868272350E+00 -1.193324198E-01
  1.881288540E+00 -1.608541517E-01
  5.442492580E-01  1.143456438E+00
   s   1
  1.687144782E-01  1.000000000E+00
   p   3
  7.868272350E+00  6.899906659E-02
  1.881288540E+00  3.164239610E-01
  5.442492580E-01  7.443082909E-01
   p   1
  1.687144782E-01  1.000000000E+00
   d   1
  8.000000000E-01  1.000000000E+00
 
   6
   s   3
  1.873113696E+01  3.349460434E-02
  2.825394365E+00  2.347269535E-01
  6.401216923E-01  8.137573261E-01
   s   1
  1.612777588E-01  1.000000000E+00
 
   7
   s   6
  3.047524880E+03  1.834737132E-03
  4.573695180E+02  1.403732281E-02
  1.039486850E+02  6.884262227E-02
  2.921015530E+01  2.321844432E-01
  9.286662960E+00  4.679413484E-01
  3.163926960E+00  3.623119853E-01
   s   3
  7.868272350E+00 -1.193324198E-01
  1.881288540E+00 -1.608541517E-01
  5.442492580E-01  1.143456438E+00
   s   1
  1.687144782E-01  1.000000000E+00
   p   3
  7.868272350E+00  6.899906659E-02
  1.881288540E+00  3.164239610E-01
  5.442492580E-01  7.443082909E-01
   p   1
  1.687144782E-01  1.000000000E+00
   d   1
  8.000000000E-01  1.000000000E+00
 
   8
   s   3
  1.873113696E+01  3.349460434E-02
  2.825394365E+00  2.347269535E-01
  6.401216923E-01  8.137573261E-01
   s   1
  1.612777588E-01  1.000000000E+00
 
   9
   s   3
  1.873113696E+01  3.349460434E-02
  2.825394365E+00  2.347269535E-01
  6.401216923E-01  8.137573261E-01
   s   1
  1.612777588E-01  1.000000000E+00
 
  10
   s   3
  1.873113696E+01  3.349460434E-02
  2.825394365E+00  2.347269535E-01
  6.401216923E-01  8.137573261E-01
   s   1
  1.612777588E-01  1.000000000E+00
 
[MO]
Sym=     1a  
Ene=   -11.3530
Spin= Alpha
Occup=    2.00000
   1         0.42598216
   2         0.00900507
   3         0.00090761
   4         0.00126744
   5        -0.00102973
   6        -0.00002388
   7         0.00079151
   8        -0.00064307
   9        -0.00001491
  10        -0.00000000
  11        -0.00000000
  12        -0.00000000
  13        -0.00000000
  14         0.00000000
  15         0.00000000
  16         0.55801266
  17         0.01193103
  18         0.00133910
  19         0.00036811
  20         0.00108568
  21         0.00002635
  22         0.00022988
  23         0.00067800
  24         0.00001646
  25        -0.00000000
  26        -0.00000000
  27         0.00000000
  28        -0.00000000
  29         0.00000000
  30        -0.00000000
  31         0.00097543
  32         0.00108912
  33         0.00102267
  34         0.00114187
  35         0.55798820
  36         0.01193055
  37         0.00133908
  38        -0.00077832
  39         0.00084188
  40         0.00001969
  41        -0.00048606
  42         0.00052575
  43         0.00001230
  44         0.00000000
  45        -0.00000000
  46        -0.00000000
  47        -0.00000000
  48         0.00000000
  49         0.00000000
  50         0.00131896
  51         0.00147269
  52         0.42595154
  53         0.00900446
  54         0.00090758
  55        -0.00073852
  56        -0.00145617
  57        -0.00003550
  58        -0.00046120
  59        -0.00090938
  60        -0.00002217
  61         0.00000000
  62        -0.00000000
  63         0.00000000
  64         0.00000000
  65         0.00000000
  66        -0.00000000
  67         0.00131892
  68         0.00147265
  69         0.00102261
  70         0.00114180
  71         0.00097535
  72         0.00108903
Sym=     2a  
Ene=   -11.3470
Spin= Alpha
Occup=    2.00000
   1        -0.55177046
   2        -0.01093938
   3        -0.00036865
   4        -0.00067778
   5         0.00077447
   6         0.00001815
   7        -0.00042327
   8         0.00048365
   9         0.00001133
  10        -0.00000000
  11        -0.00000000
  12        -0.00000000
  13         0.00000000
  14         0.00000000
  15        -0.00000000
  16        -0.43526437
  17        -0.00841624
  18        -0.00005334
  19         0.00204090
  20        -0.00070691
  21        -0.00001558
  22         0.00127454
  23        -0.00044146
  24        -0.00000973
  25         0.00000000
  26         0.00000000
  27         0.00000000
  28        -0.00000000
  29        -0.00000000
  30         0.00000000
  31        -0.00118021
  32        -0.00131776
  33        -0.00112165
  34        -0.00125238
  35         0.43530001
  36         0.00841698
  37         0.00005339
  38         0.00157641
  39         0.00147602
  40         0.00003656
  41         0.00098447
  42         0.00092178
  43         0.00002283
  44         0.00000000
  45         0.00000000
  46         0.00000000
  47         0.00000000
  48         0.00000000
  49        -0.00000000
  50        -0.00089947
  51        -0.00100430
  52         0.55178834
  53         0.01093977
  54         0.00036870
  55        -0.00030387
  56        -0.00098326
  57        -0.00002384
  58        -0.00018977
  59        -0.00061404
  60        -0.00001489
  61         0.00000000
  62         0.00000000
  63         0.00000000
  64        -0.00000000
  65         0.00000000
  66        -0.00000000
  67         0.00089956
  68         0.00100440
  69         0.00112170
  70         0.00125243
  71         0.00118024
  72         0.00131779
Sym=     3a  
Ene=   -11.3330
Spin= Alpha
Occup=    2.00000
   1         0.55972615
   2         0.00955466
   3        -0.00134333
   4        -0.00088366
   5         0.00079084
   6         0.00001840
   7        -0.00055184
   8         0.00049388
   9         0.00001149
  10         0.00000000
  11         0.00000000
  12         0.00000000
  13        -0.00000000
  14         0.00000000
  15         0.00000000
  16        -0.42716510
  17        -0.00739731
  18         0.00090773
  19        -0.00178649
  20         0.00091639
  21         0.00002079
  22        -0.00111566
  23         0.00057228
  24         0.00001299
  25         0.00000000
  26         0.00000000
  27         0.00000000
  28        -0.00000000
  29         0.00000000
  30        -0.00000000
  31         0.00095546
  32         0.00106683
  33         0.00097763
  34         0.00109157
  35        -0.42717181
  36        -0.00739741
  37         0.00090776
  38         0.00125880
  39         0.00156387
  40         0.00003845
  41         0.00078612
  42         0.00097664
  43         0.00002401
  44        -0.00000000
  45        -0.00000000
  46        -0.00000000
  47        -0.00000000
  48         0.00000000
  49         0.00000000
  50        -0.00075163
  51        -0.00083923
  52         0.55974089
  53         0.00955493
  54        -0.00134335
  55         0.00048523
  56         0.00108190
  57         0.00002633
  58         0.00030302
  59         0.00067564
  60         0.00001645
  61        -0.00000000
  62        -0.00000000
  63        -0.00000000
  64        -0.00000000
  65         0.00000000
  66        -0.00000000
  67        -0.00075165
  68        -0.00083926
  69         0.00097766
  70         0.00109161
  71         0.00095548
  72         0.00106684
Sym=     4a  
Ene=   -11.3280
Spin= Alpha
Occup=    2.00000
   1        -0.43634451
   2        -0.00713022
   3         0.00140159
   4         0.00093222
   5        -0.00094082
   6        -0.00002197
   7         0.00058217
   8        -0.00058754
   9        -0.00001372
  10         0.00000000
  11        -0.00000000
  12        -0.00000000
  13         0.00000000
  14        -0.00000000
  15        -0.00000000
  16         0.55338869
  17         0.00877310
  18        -0.00207784
  19        -0.00016647
  20        -0.00092441
  21        -0.00002234
  22        -0.00010396
  23        -0.00057729
  24        -0.00001395
  25         0.00000000
  26        -0.00000000
  27         0.00000000
  28         0.00000000
  29        -0.00000000
  30         0.00000000
  31        -0.00068382
  32        -0.00076352
  33        -0.00070370
  34        -0.00078572
  35        -0.55338015
  36        -0.00877296
  37         0.00207781
  38        -0.00052842
  39         0.00077665
  40         0.00001830
  41        -0.00033000
  42         0.00048502
  43         0.00001143
  44         0.00000000
  45         0.00000000
  46         0.00000000
  47         0.00000000
  48         0.00000000
  49        -0.00000000
  50         0.00081636
  51         0.00091151
  52         0.43633291
  53         0.00713003
  54        -0.00140155
  55         0.00046851
  56         0.00123861
  57         0.00003009
  58         0.00029258
  59         0.00077351
  60         0.00001879
  61        -0.00000000
  62        -0.00000000
  63        -0.00000000
  64        -0.00000000
  65        -0.00000000
  66         0.00000000
  67        -0.00081636
  68        -0.00091151
  69         0.00070369
  70         0.00078570
  71         0.00068379
  72         0.00076349
Sym=     5a  
Ene=    -1.5892
Spin= Alpha
Occup=    2.00000
   1        -0.09957039
   2         0.12471389
   3         0.14098267
   4         0.04325836
   5        -0.01829452
   6        -0.00040991
   7         0.02701482
   8        -0.01142492
   9        -0.00025599
  10        -0.00000000
  11        -0.00000000
  12        -0.00000000
  13         0.00000000
  14        -0.00000000
  15        -0.00000000
  16        -0.12731023
  17         0.15933268
  18         0.18011959
  19         0.01643241
  20         0.03321356
  21         0.00080971
  22         0.01026203
  23         0.02074185
  24         0.00050566
  25        -0.00000000
  26        -0.00000000
  27        -0.00000000
  28         0.00000000
  29        -0.00000000
  30        -0.00000000
  31         0.04499401
  32         0.05023814
  33         0.05784759
  34         0.06458983
  35        -0.12730941
  36         0.15933179
  37         0.18011858
  38        -0.02853169
  39         0.02365384
  40         0.00054866
  41        -0.01781802
  42         0.01477181
  43         0.00034264
  44        -0.00000000
  45         0.00000000
  46         0.00000000
  47        -0.00000000
  48         0.00000000
  49         0.00000000
  50         0.06055286
  51         0.06761040
  52        -0.09956943
  53         0.12471297
  54         0.14098162
  55        -0.03206671
  56        -0.03430961
  57        -0.00084663
  58        -0.02002564
  59        -0.02142633
  60        -0.00052872
  61        -0.00000000
  62        -0.00000000
  63        -0.00000000
  64        -0.00000000
  65        -0.00000000
  66         0.00000000
  67         0.06055255
  68         0.06761006
  69         0.05784721
  70         0.06458941
  71         0.04499329
  72         0.05023733
Sym=     6a  
Ene=    -1.3266
Spin= Alpha
Occup=    2.00000
   1         0.12646505
   2        -0.16612536
   3        -0.18766419
   4         0.00966131
   5         0.03342923
   6         0.00081026
   7         0.00603348
   8         0.02087654
   9         0.00050601
  10        -0.00000000
  11        -0.00000000
  12        -0.00000000
  13         0.00000000
  14         0.00000000
  15         0.00000000
  16         0.08239133
  17        -0.10538941
  18        -0.11909986
  19         0.09419148
  20        -0.00785892
  21        -0.00012386
  22         0.05882253
  23        -0.00490789
  24        -0.00007735
  25         0.00000000
  26         0.00000000
  27         0.00000000
  28        -0.00000000
  29         0.00000000
  30        -0.00000000
  31        -0.08793625
  32        -0.09818537
  33        -0.06151420
  34        -0.06868379
  35        -0.08239296
  36         0.10539167
  37         0.11910241
  38         0.08283802
  39         0.04549754
  40         0.00115065
  41         0.05173230
  42         0.02841319
  43         0.00071858
  44        -0.00000000
  45        -0.00000000
  46        -0.00000000
  47         0.00000000
  48        -0.00000000
  49         0.00000000
  50        -0.05791124
  51        -0.06466090
  52        -0.12646451
  53         0.16612518
  54         0.18766397
  55         0.02243342
  56        -0.02660598
  57        -0.00062379
  58         0.01400966
  59        -0.01661542
  60        -0.00038955
  61         0.00000000
  62         0.00000000
  63        -0.00000000
  64         0.00000000
  65         0.00000000
  66         0.00000000
  67         0.05791218
  68         0.06466194
  69         0.06151424
  70         0.06868383
  71         0.08793560
  72         0.09818464
Sym=     7a  
Ene=    -1.1125
Spin= Alpha
Occup=    2.00000
   1        -0.08669392
   2         0.11767661
   3         0.13287202
   4        -0.03942861
   5         0.07933457
   6         0.00187987
   7        -0.02462315
   8         0.04954440
   9         0.00117398
  10         0.00000000
  11         0.00000000
  12         0.00000000
  13        -0.00000000
  14        -0.00000000
  15        -0.00000000
  16         0.08020047
  17        -0.11218324
  18        -0.12661694
  19        -0.08542393
  20         0.10813116
  21         0.00254018
  22        -0.05334720
  23         0.06752785
  24         0.00158634
  25        -0.00000000
  26        -0.00000000
  27        -0.00000000
  28         0.00000000
  29         0.00000000
  30        -0.00000000
  31         0.06577595
  32         0.07344225
  33         0.09954334
  34         0.11114529
  35         0.08020077
  36        -0.11218355
  37        -0.12661729
  38         0.03401220
  39         0.13352454
  40         0.00323265
  41         0.02124060
  42         0.08338601
  43         0.00201879
  44        -0.00000000
  45        -0.00000000
  46        -0.00000000
  47        -0.00000000
  48        -0.00000000
  49        -0.00000000
  50        -0.09391392
  51        -0.10485975
  52        -0.08669520
  53         0.11767875
  54         0.13287443
  55         0.00372013
  56         0.08850872
  57         0.00212972
  58         0.00232322
  59         0.05527365
  60         0.00133001
  61         0.00000000
  62         0.00000000
  63         0.00000000
  64        -0.00000000
  65        -0.00000000
  66        -0.00000000
  67        -0.09391397
  68        -0.10485980
  69         0.09954443
  70         0.11114651
  71         0.06577704
  72         0.07344347
Sym=     8a  
Ene=    -0.8946
Spin= Alpha
Occup=    2.00000
   1        -0.02873775
   2         0.04643156
   3         0.05231013
   4        -0.17243312
   5        -0.10152017
   6        -0.00255994
   7        -0.10768439
   8        -0.06339929
   9        -0.00159868
  10         0.00000000
  11         0.00000000
  12        -0.00000000
  13        -0.00000000
  14        -0.00000000
  15        -0.00000000
  16         0.02394637
  17        -0.03004554
  18        -0.03396405
  19        -0.12978098
  20        -0.13710776
  21        -0.00338565
  22        -0.08104816
  23        -0.08562373
  24        -0.00211434
  25        -0.00000000
  26        -0.00000000
  27        -0.00000000
  28         0.00000000
  29         0.00000000
  30        -0.00000000
  31         0.12636112
  32         0.14108873
  33        -0.04911882
  34        -0.05484371
  35         0.02394247
  36        -0.03003984
  37        -0.03395762
  38         0.17436653
  39        -0.07244454
  40        -0.00162045
  41         0.10889181
  42        -0.04524158
  43        -0.00101197
  44        -0.00000000
  45        -0.00000000
  46        -0.00000000
  47        -0.00000000
  48        -0.00000000
  49         0.00000000
  50         0.07251468
  51         0.08096640
  52        -0.02873594
  53         0.04642898
  54         0.05230723
  55         0.19883580
  56        -0.02258747
  57        -0.00040504
  58         0.12417285
  59        -0.01410587
  60        -0.00025295
  61        -0.00000000
  62        -0.00000000
  63        -0.00000000
  64        -0.00000000
  65         0.00000000
  66         0.00000000
  67         0.07251913
  68         0.08097137
  69        -0.04912105
  70        -0.05484619
  71         0.12635927
  72         0.14108667
Sym=     9a  
Ene=    -0.8695
Spin= Alpha
Occup=    2.00000
   1         0.05502886
   2        -0.09059233
   3        -0.10203970
   4         0.06802527
   5        -0.15539876
   6        -0.00368948
   7         0.04248174
   8        -0.09704645
   9        -0.00230408
  10        -0.00000000
  11         0.00000000
  12         0.00000000
  13         0.00000000
  14         0.00000000
  15         0.00000000
  16        -0.08188877
  17         0.11815577
  18         0.13330265
  19        -0.06999604
  20        -0.10237403
  21        -0.00251058
  22        -0.04371249
  23        -0.06393253
  24        -0.00156786
  25        -0.00000000
  26         0.00000000
  27        -0.00000000
  28        -0.00000000
  29         0.00000000
  30        -0.00000000
  31        -0.05831332
  32        -0.06510984
  33        -0.11270736
  34        -0.12584360
  35         0.08188942
  36        -0.11815665
  37        -0.13330363
  38        -0.10560839
  39         0.06503354
  40         0.00148864
  41        -0.06595239
  42         0.04061341
  43         0.00092965
  44         0.00000000
  45         0.00000000
  46         0.00000000
  47        -0.00000000
  48        -0.00000000
  49        -0.00000000
  50         0.12582289
  51         0.14048777
  52        -0.05502956
  53         0.09059350
  54         0.10204102
  55        -0.00111748
  56         0.16962137
  57         0.00407478
  58        -0.00069787
  59         0.10592846
  60         0.00254470
  61         0.00000000
  62        -0.00000000
  63         0.00000000
  64         0.00000000
  65         0.00000000
  66        -0.00000000
  67        -0.12582028
  68        -0.14048486
  69         0.11270538
  70         0.12584138
  71         0.05831705
  72         0.06511400
Sym=    10a  
Ene=    -0.6563
Spin= Alpha
Occup=    2.00000
   1        -0.00000108
   2         0.00000176
   3         0.00000198
   4        -0.00014336
   5        -0.00558309
   6         0.23262737
   7        -0.00008953
   8        -0.00348664
   9         0.14527567
  10         0.00000000
  11         0.00000000
  12         0.00000000
  13         0.00000000
  14         0.00000000
  15         0.00000000
  16        -0.00000332
  17         0.00000562
  18         0.00000633
  19        -0.00022316
  20        -0.00772990
  21         0.32167313
  22        -0.00013936
  23        -0.00482732
  24         0.20088470
  25         0.00000000
  26         0.00000000
  27         0.00000000
  28        -0.00000000
  29        -0.00000000
  30         0.00000000
  31        -0.00001232
  32        -0.00001376
  33         0.00000851
  34         0.00000950
  35         0.00000390
  36        -0.00000620
  37        -0.00000698
  38        -0.00022351
  39        -0.00774031
  40         0.32167145
  41        -0.00013958
  42        -0.00483382
  43         0.20088366
  44        -0.00000000
  45        -0.00000000
  46         0.00000000
  47        -0.00000000
  48         0.00000000
  49        -0.00000000
  50         0.00000113
  51         0.00000126
  52         0.00000182
  53        -0.00000257
  54        -0.00000290
  55        -0.00014139
  56        -0.00558423
  57         0.23262580
  58        -0.00008830
  59        -0.00348735
  60         0.14527469
  61        -0.00000000
  62        -0.00000000
  63        -0.00000000
  64        -0.00000000
  65         0.00000000
  66         0.00000000
  67         0.00000143
  68         0.00000160
  69        -0.00000422
  70        -0.00000471
  71         0.00001246
  72         0.00001391
Sym=    11a  
Ene=    -0.6529
Spin= Alpha
Occup=    2.00000
   1         0.02083945
   2        -0.02017605
   3        -0.02290926
   4        -0.08806198
   5         0.22782603
   6         0.00541339
   7        -0.05499466
   8         0.14227724
   9         0.00338066
  10        -0.00000000
  11        -0.00000000
  12        -0.00000000
  13         0.00000000
  14         0.00000000
  15         0.00000000
  16         0.02404698
  17        -0.03013847
  18        -0.03406966
  19         0.13284158
  20        -0.19240184
  21        -0.00453741
  22         0.08295950
  23        -0.12015485
  24        -0.00283361
  25         0.00000000
  26         0.00000000
  27         0.00000000
  28         0.00000000
  29        -0.00000000
  30         0.00000000
  31         0.00020406
  32         0.00022785
  33         0.14241023
  34         0.15900839
  35         0.02404290
  36        -0.03013183
  37        -0.03406218
  38        -0.04301958
  39        -0.22979107
  40        -0.00555775
  41        -0.02686570
  42        -0.14350440
  43        -0.00347081
  44         0.00000000
  45        -0.00000000
  46         0.00000000
  47        -0.00000000
  48        -0.00000000
  49        -0.00000000
  50         0.08576894
  51         0.09576546
  52         0.02083818
  53        -0.02017439
  54        -0.02290738
  55        -0.01232759
  56         0.24393646
  57         0.00584906
  58        -0.00769858
  59         0.15233819
  60         0.00365273
  61         0.00000000
  62        -0.00000000
  63        -0.00000000
  64         0.00000000
  65         0.00000000
  66        -0.00000000
  67         0.08577171
  68         0.09576855
  69         0.14241944
  70         0.15901867
  71         0.00019093
  72         0.00021319
Sym=    12a  
Ene=    -0.6423
Spin= Alpha
Occup=    2.00000
   1        -0.02280509
   2         0.03622159
   3         0.04081578
   4         0.26651863
   5         0.10827597
   6         0.00277120
   7         0.16644075
   8         0.06761829
   9         0.00173061
  10        -0.00000000
  11        -0.00000000
  12        -0.00000000
  13        -0.00000000
  14         0.00000000
  15         0.00000000
  16        -0.04731922
  17         0.07905303
  18         0.08902728
  19        -0.03035460
  20         0.07989619
  21         0.00187679
  22        -0.01895643
  23         0.04989513
  24         0.00117206
  25        -0.00000000
  26         0.00000000
  27         0.00000000
  28        -0.00000000
  29        -0.00000000
  30         0.00000000
  31        -0.17337015
  32        -0.19357674
  33         0.10188037
  34         0.11375470
  35         0.04732078
  36        -0.07905514
  37        -0.08902966
  38         0.00479909
  39        -0.08534612
  40        -0.00207079
  41         0.00299703
  42        -0.05329861
  43        -0.00129321
  44         0.00000000
  45         0.00000000
  46        -0.00000000
  47         0.00000000
  48        -0.00000000
  49        -0.00000000
  50        -0.00063789
  51        -0.00071224
  52         0.02280705
  53        -0.03622384
  54        -0.04081833
  55         0.28752626
  56         0.00954065
  57         0.00041183
  58         0.17956000
  59         0.00595813
  60         0.00025719
  61        -0.00000000
  62         0.00000000
  63        -0.00000000
  64         0.00000000
  65         0.00000000
  66        -0.00000000
  67         0.00064615
  68         0.00072146
  69        -0.10186907
  70        -0.11374209
  71         0.17336957
  72         0.19357610
Sym=    13a  
Ene=    -0.5224
Spin= Alpha
Occup=    2.00000
   1        -0.03335278
   2         0.05099220
   3         0.05748655
   4         0.08841356
   5        -0.22306990
   6        -0.00530393
   7         0.05521422
   8        -0.13930704
   9        -0.00331230
  10         0.00000000
  11        -0.00000000
  12         0.00000000
  13        -0.00000000
  14         0.00000000
  15        -0.00000000
  16        -0.00975801
  17         0.00178965
  18         0.00220140
  19        -0.06920746
  20         0.24526506
  21         0.00584759
  22        -0.04322002
  23         0.15316790
  24         0.00365182
  25         0.00000000
  26         0.00000000
  27        -0.00000000
  28         0.00000000
  29        -0.00000000
  30         0.00000000
  31         0.01731449
  32         0.01933253
  33        -0.12074563
  34        -0.13481875
  35         0.00976189
  36        -0.00179914
  37        -0.00221204
  38         0.03670392
  39        -0.25217779
  40        -0.00603510
  41         0.02292158
  42        -0.15748490
  43        -0.00376891
  44        -0.00000000
  45        -0.00000000
  46        -0.00000000
  47        -0.00000000
  48        -0.00000000
  49        -0.00000000
  50        -0.17929467
  51        -0.20019178
  52         0.03334924
  53        -0.05098900
  54        -0.05748291
  55        -0.01009164
  56         0.23971391
  57         0.00575155
  58        -0.00630223
  59         0.14970121
  60         0.00359184
  61         0.00000000
  62        -0.00000000
  63         0.00000000
  64        -0.00000000
  65        -0.00000000
  66         0.00000000
  67         0.17931878
  68         0.20021870
  69         0.12076118
  70         0.13483611
  71        -0.01734899
  72        -0.01937105
Sym=    14a  
Ene=    -0.5113
Spin= Alpha
Occup=    2.00000
   1        -0.01249600
   2         0.01272461
   3         0.01443454
   4         0.18293298
   5         0.02259596
   6         0.00067743
   7         0.11424155
   8         0.01411117
   9         0.00042305
  10        -0.00000000
  11        -0.00000000
  12        -0.00000000
  13        -0.00000000
  14         0.00000000
  15         0.00000000
  16         0.02167848
  17        -0.04799066
  18        -0.05389487
  19        -0.30852726
  20        -0.09435951
  21        -0.00247727
  22        -0.19267511
  23        -0.05892747
  24        -0.00154705
  25         0.00000000
  26         0.00000000
  27         0.00000000
  28        -0.00000000
  29        -0.00000000
  30         0.00000000
  31        -0.14406798
  32        -0.16085936
  33         0.07995709
  34         0.08927623
  35         0.02167532
  36        -0.04798840
  37        -0.05389228
  38         0.32022788
  39         0.03938581
  40         0.00116380
  41         0.19998214
  42         0.02459641
  43         0.00072679
  44         0.00000000
  45        -0.00000000
  46        -0.00000000
  47         0.00000000
  48        -0.00000000
  49        -0.00000000
  50         0.11288230
  51         0.12603893
  52        -0.01250481
  53         0.01273886
  54         0.01445060
  55        -0.17629968
  56        -0.05383872
  57        -0.00142305
  58        -0.11009906
  59        -0.03362225
  60        -0.00088870
  61         0.00000000
  62         0.00000000
  63        -0.00000000
  64         0.00000000
  65         0.00000000
  66         0.00000000
  67         0.11283796
  68         0.12598943
  69         0.07992945
  70         0.08924537
  71        -0.14406648
  72        -0.16085768
Sym=    15a  
Ene=    -0.5020
Spin= Alpha
Occup=    2.00000
   1        -0.00000006
   2        -0.00000005
   3        -0.00000005
   4         0.00026701
   5         0.00915461
   6        -0.38073239
   7         0.00016675
   8         0.00571705
   9        -0.23776718
  10        -0.00000000
  11        -0.00000000
  12         0.00000000
  13         0.00000000
  14         0.00000000
  15        -0.00000000
  16         0.00000052
  17        -0.00000111
  18        -0.00000124
  19         0.00016542