[Molden Format]
[N_Atoms]
                   10
[Atoms] (AU)
C1          1      6          -5.35211597      3.22384098      0.00287906
C2          2      6          -3.46149064      1.59040525     -0.03507870
H3          3      1          -7.28154536      2.58935437     -0.01374656
H4          4      1          -5.06667367      5.23554540      0.05144843
C5          5      6          -0.72635073      2.17193310     -0.01924825
H6          6      1          -3.91155447     -0.39506047     -0.08311945
C7          7      6           0.33568120      4.43314387      0.03580505
H8          8      1           0.49302106      0.54141133     -0.05759353
H9          9      1          -0.74399912      6.15460572      0.07643069
H10        10      1           2.35640653      4.63850878      0.04226106
[Charge] (Mulliken)
 -0.39142608605102147     
 -0.15165175551438015     
  0.18122066004296755     
  0.17691770356467074     
 -0.15165173873521542     
  0.18493944775223858     
 -0.39142607513401817     
  0.18493947853020576     
  0.17691772017117691     
  0.18122064537292737     
[GTO] (AU)
   1
   s   6
  3.047524880E+03  1.834737132E-03
  4.573695180E+02  1.403732281E-02
  1.039486850E+02  6.884262227E-02
  2.921015530E+01  2.321844432E-01
  9.286662960E+00  4.679413484E-01
  3.163926960E+00  3.623119853E-01
   s   3
  7.868272350E+00 -1.193324198E-01
  1.881288540E+00 -1.608541517E-01
  5.442492580E-01  1.143456438E+00
   s   1
  1.687144782E-01  1.000000000E+00
   p   3
  7.868272350E+00  6.899906659E-02
  1.881288540E+00  3.164239610E-01
  5.442492580E-01  7.443082909E-01
   p   1
  1.687144782E-01  1.000000000E+00
   d   1
  8.000000000E-01  1.000000000E+00
 
   2
   s   6
  3.047524880E+03  1.834737132E-03
  4.573695180E+02  1.403732281E-02
  1.039486850E+02  6.884262227E-02
  2.921015530E+01  2.321844432E-01
  9.286662960E+00  4.679413484E-01
  3.163926960E+00  3.623119853E-01
   s   3
  7.868272350E+00 -1.193324198E-01
  1.881288540E+00 -1.608541517E-01
  5.442492580E-01  1.143456438E+00
   s   1
  1.687144782E-01  1.000000000E+00
   p   3
  7.868272350E+00  6.899906659E-02
  1.881288540E+00  3.164239610E-01
  5.442492580E-01  7.443082909E-01
   p   1
  1.687144782E-01  1.000000000E+00
   d   1
  8.000000000E-01  1.000000000E+00
 
   3
   s   3
  1.873113696E+01  3.349460434E-02
  2.825394365E+00  2.347269535E-01
  6.401216923E-01  8.137573261E-01
   s   1
  1.612777588E-01  1.000000000E+00
 
   4
   s   3
  1.873113696E+01  3.349460434E-02
  2.825394365E+00  2.347269535E-01
  6.401216923E-01  8.137573261E-01
   s   1
  1.612777588E-01  1.000000000E+00
 
   5
   s   6
  3.047524880E+03  1.834737132E-03
  4.573695180E+02  1.403732281E-02
  1.039486850E+02  6.884262227E-02
  2.921015530E+01  2.321844432E-01
  9.286662960E+00  4.679413484E-01
  3.163926960E+00  3.623119853E-01
   s   3
  7.868272350E+00 -1.193324198E-01
  1.881288540E+00 -1.608541517E-01
  5.442492580E-01  1.143456438E+00
   s   1
  1.687144782E-01  1.000000000E+00
   p   3
  7.868272350E+00  6.899906659E-02
  1.881288540E+00  3.164239610E-01
  5.442492580E-01  7.443082909E-01
   p   1
  1.687144782E-01  1.000000000E+00
   d   1
  8.000000000E-01  1.000000000E+00
 
   6
   s   3
  1.873113696E+01  3.349460434E-02
  2.825394365E+00  2.347269535E-01
  6.401216923E-01  8.137573261E-01
   s   1
  1.612777588E-01  1.000000000E+00
 
   7
   s   6
  3.047524880E+03  1.834737132E-03
  4.573695180E+02  1.403732281E-02
  1.039486850E+02  6.884262227E-02
  2.921015530E+01  2.321844432E-01
  9.286662960E+00  4.679413484E-01
  3.163926960E+00  3.623119853E-01
   s   3
  7.868272350E+00 -1.193324198E-01
  1.881288540E+00 -1.608541517E-01
  5.442492580E-01  1.143456438E+00
   s   1
  1.687144782E-01  1.000000000E+00
   p   3
  7.868272350E+00  6.899906659E-02
  1.881288540E+00  3.164239610E-01
  5.442492580E-01  7.443082909E-01
   p   1
  1.687144782E-01  1.000000000E+00
   d   1
  8.000000000E-01  1.000000000E+00
 
   8
   s   3
  1.873113696E+01  3.349460434E-02
  2.825394365E+00  2.347269535E-01
  6.401216923E-01  8.137573261E-01
   s   1
  1.612777588E-01  1.000000000E+00
 
   9
   s   3
  1.873113696E+01  3.349460434E-02
  2.825394365E+00  2.347269535E-01
  6.401216923E-01  8.137573261E-01
   s   1
  1.612777588E-01  1.000000000E+00
 
  10
   s   3
  1.873113696E+01  3.349460434E-02
  2.825394365E+00  2.347269535E-01
  6.401216923E-01  8.137573261E-01
   s   1
  1.612777588E-01  1.000000000E+00
 
[MO]
Sym=     1a  
Ene=   -11.2330
Spin= Alpha
Occup=    2.00000
   1         0.05647254
   2         0.00123713
   3         0.00223496
   4        -0.00014114
   5         0.00005754
   6         0.00000128
   7         0.00118036
   8        -0.00046163
   9        -0.00001028
  10        -0.00022104
  11        -0.00025397
  12        -0.00023642
  13        -0.00005615
  14        -0.00000134
  15        -0.00000052
  16         0.70158182
  17         0.01949356
  18        -0.00628100
  19         0.00005791
  20         0.00001190
  21         0.00000033
  22         0.00061726
  23        -0.00029722
  24        -0.00000671
  25        -0.00161204
  26        -0.00143236
  27        -0.00181844
  28        -0.00019723
  29        -0.00000457
  30         0.00001059
  31        -0.00000443
  32         0.00030233
  33        -0.00010395
  34        -0.00009613
  35         0.70158051
  36         0.01949353
  37        -0.00628098
  38        -0.00005774
  39        -0.00001269
  40        -0.00000036
  41        -0.00044284
  42        -0.00052261
  43        -0.00001285
  44        -0.00170927
  45        -0.00133519
  46        -0.00181837
  47         0.00005469
  48         0.00000140
  49         0.00001345
  50        -0.00015014
  51         0.00129894
  52         0.05647244
  53         0.00123713
  54         0.00223495
  55         0.00010549
  56         0.00010998
  57         0.00000272
  58        -0.00089027
  59        -0.00090187
  60        -0.00002229
  61        -0.00026266
  62        -0.00021238
  63        -0.00023639
  64         0.00005169
  65         0.00000122
  66         0.00000070
  67        -0.00015014
  68         0.00129894
  69        -0.00010395
  70        -0.00009613
  71        -0.00000443
  72         0.00030233
Sym=     2a  
Ene=   -11.2320
Spin= Alpha
Occup=    2.00000
   1        -0.06139621
   2        -0.00150877
   3        -0.00316389
   4         0.00007067
   5        -0.00012238
   6        -0.00000289
   7        -0.00141190
   8         0.00047644
   9         0.00001048
  10         0.00029485
  11         0.00042939
  12         0.00016575
  13        -0.00003775
  14        -0.00000080
  15         0.00000729
  16        -0.70144365
  17        -0.01942903
  18         0.01205929
  19        -0.00020393
  20        -0.00012008
  21        -0.00000302
  22         0.00130714
  23         0.00176157
  24         0.00004320
  25         0.00055674
  26         0.00111887
  27         0.00157775
  28         0.00019452
  29         0.00000387
  30        -0.00001261
  31         0.00003118
  32        -0.00014594
  33         0.00007628
  34         0.00019326
  35         0.70144495
  36         0.01942906
  37        -0.01205930
  38        -0.00023516
  39         0.00002672
  40         0.00000047
  41         0.00191112
  42        -0.00107732
  43        -0.00002458
  44        -0.00077507
  45        -0.00090069
  46        -0.00157761
  47         0.00037117
  48         0.00000955
  49         0.00001905
  50         0.00006822
  51        -0.00108513
  52         0.06139633
  53         0.00150877
  54         0.00316390
  55         0.00001473
  56         0.00014054
  57         0.00000339
  58        -0.00109574
  59        -0.00100960
  60        -0.00002501
  61        -0.00029284
  62        -0.00043140
  63        -0.00016575
  64         0.00003256
  65         0.00000068
  66        -0.00000735
  67        -0.00006822
  68         0.00108513
  69        -0.00007628
  70        -0.00019326
  71        -0.00003118
  72         0.00014594
Sym=     3a  
Ene=   -11.2220
Spin= Alpha
Occup=    2.00000
   1        -0.70134463
   2        -0.01954406
   3         0.00893731
   4        -0.00005898
   5        -0.00000069
   6        -0.00000006
   7         0.00065605
   8        -0.00022959
   9        -0.00000507
  10         0.00124585
  11         0.00128907
  12         0.00180316
  13         0.00017406
  14         0.00000373
  15        -0.00001416
  16         0.06190774
  17         0.00188308
  18        -0.00417198
  19        -0.00012095
  20         0.00009753
  21         0.00000226
  22         0.00091690
  23        -0.00106554
  24        -0.00002498
  25         0.00021141
  26         0.00011028
  27        -0.00010425
  28         0.00003272
  29         0.00000104
  30         0.00000598
  31         0.00010438
  32        -0.00142934
  33         0.00008963
  34        -0.00179914
  35        -0.06190119
  36        -0.00188286
  37         0.00417160
  38        -0.00007077
  39        -0.00013827
  40        -0.00000337
  41         0.00040371
  42         0.00134620
  43         0.00003264
  44        -0.00021575
  45        -0.00010593
  46         0.00010424
  47        -0.00002145
  48        -0.00000077
  49        -0.00000584
  50         0.00001649
  51         0.00021890
  52         0.70126375
  53         0.01954181
  54        -0.00893635
  55        -0.00005416
  56        -0.00002336
  57        -0.00000057
  58         0.00050579
  59         0.00047655
  60         0.00001173
  61        -0.00136489
  62        -0.00116980
  63        -0.00180286
  64         0.00013480
  65         0.00000360
  66         0.00001767
  67        -0.00001649
  68        -0.00021889
  69        -0.00008961
  70         0.00179898
  71        -0.00010437
  72         0.00142916
Sym=     4a  
Ene=   -11.2220
Spin= Alpha
Occup=    2.00000
   1         0.70166308
   2         0.01952366
   3        -0.00833077
   4         0.00000866
   5        -0.00004741
   6        -0.00000114
   7        -0.00035145
   8         0.00045302
   9         0.00001066
  10        -0.00131065
  11        -0.00131675
  12        -0.00185587
  13        -0.00018381
  14        -0.00000398
  15         0.00001485
  16        -0.05695920
  17        -0.00188674
  18         0.00331222
  19         0.00010453
  20        -0.00014116
  21        -0.00000332
  22        -0.00096063
  23         0.00081925
  24         0.00001903
  25        -0.00003125
  26        -0.00005050
  27         0.00007508
  28         0.00002945
  29         0.00000062
  30        -0.00000347
  31        -0.00009083
  32         0.00155023
  33        -0.00011455
  34         0.00137092
  35        -0.05696635
  36        -0.00188696
  37         0.00331271
  38        -0.00003803
  39        -0.00017149
  40        -0.00000414
  41         0.00054402
  42         0.00113931
  43         0.00002776
  44        -0.00001551
  45        -0.00006627
  46         0.00007508
  47        -0.00001141
  48        -0.00000035
  49        -0.00000392
  50        -0.00001150
  51        -0.00004803
  52         0.70174391
  53         0.01952591
  54        -0.00833180
  55         0.00001139
  56        -0.00004683
  57        -0.00000109
  58         0.00013667
  59         0.00055685
  60         0.00001340
  61        -0.00143015
  62        -0.00119762
  63        -0.00185600
  64         0.00012540
  65         0.00000337
  66         0.00001837
  67        -0.00001150
  68        -0.00004806
  69        -0.00011456
  70         0.00137113
  71        -0.00009084
  72         0.00155039
Sym=     5a  
Ene=    -1.0852
Spin= Alpha
Occup=    2.00000
   1        -0.09350661
   2         0.17580621
   3         0.12972088
   4         0.06373492
   5        -0.04508493
   6        -0.00104012
   7         0.00661617
   8        -0.00458469
   9        -0.00010579
  10         0.00767342
  11         0.00513253
  12        -0.00769017
  13        -0.00545701
  14        -0.00011879
  15         0.00035247
  16        -0.13060973
  17         0.24936160
  18         0.16749173
  19         0.00784615
  20         0.05018833
  21         0.00121078
  22         0.00582540
  23         0.00070780
  24         0.00002082
  25         0.01351364
  26         0.00617325
  27        -0.01103706
  28        -0.00155778
  29        -0.00001811
  30         0.00047682
  31         0.04215253
  32         0.00579495
  33         0.04667827
  34         0.00862707
  35        -0.13060975
  36         0.24936164
  37         0.16749175
  38        -0.02759816
  39         0.04265240
  40         0.00100629
  41        -0.00560932
  42        -0.00172339
  43        -0.00004517
  44         0.01129650
  45         0.00838895
  46        -0.01103563
  47         0.00418676
  48         0.00011816
  49         0.00054212
  50         0.06379060
  51         0.00926661
  52        -0.09350664
  53         0.17580626
  54         0.12972092
  55        -0.03986488
  56        -0.06711172
  57        -0.00163846
  58        -0.00417715
  59        -0.00687951
  60        -0.00016762
  61         0.00373930
  62         0.00906411
  63        -0.00768763
  64         0.00473620
  65         0.00012330
  66         0.00046828
  67         0.06379062
  68         0.00926660
  69         0.04667828
  70         0.00862706
  71         0.04215254
  72         0.00579496
Sym=     6a  
Ene=    -0.9950
Spin= Alpha
Occup=    2.00000
   1         0.12654964
   2        -0.23850405
   3        -0.20655717
   4        -0.04487906
   5         0.05460453
   6         0.00128200
   7        -0.00720971
   8         0.00101211
   9         0.00001940
  10        -0.00946585
  11        -0.00910197
  12         0.01049581
  13         0.00444830
  14         0.00009071
  15        -0.00054139
  16         0.09074254
  17        -0.17520324
  18        -0.12479185
  19         0.12340661
  20        -0.04152480
  21        -0.00091318
  22         0.02062473
  23         0.01754751
  24         0.00043599
  25         0.00145473
  26        -0.00770754
  27         0.00604515
  28         0.01017424
  29         0.00024082
  30        -0.00037495
  31        -0.07679738
  32        -0.01933264
  33        -0.06709458
  34        -0.00845452
  35        -0.09074252
  36         0.17520319
  37         0.12479182
  38         0.09582113
  39         0.08813556
  40         0.00218348
  41         0.02598301
  42        -0.00763808
  43        -0.00016573
  44        -0.00648878
  45         0.01273832
  46        -0.00604188
  47         0.00286885
  48         0.00006857
  49         0.00052335
  50        -0.05531605
  51        -0.00507309
  52        -0.12654962
  53         0.23850401
  54         0.20655713
  55        -0.01876570
  56        -0.06813634
  57        -0.00164742
  58        -0.00617367
  59        -0.00385762
  60        -0.00009610
  61         0.00654268
  62         0.01202325
  63        -0.01049392
  64         0.00312553
  65         0.00008947
  66         0.00062726
  67         0.05531603
  68         0.00507308
  69         0.06709456
  70         0.00845452
  71         0.07679738
  72         0.01933264
Sym=     7a  
Ene=    -0.8400
Spin= Alpha
Occup=    2.00000
   1        -0.10181892
   2         0.19653526
   3         0.17937641
   4        -0.05313130
   5         0.04489512
   6         0.00104186
   7        -0.02495495
   8         0.01930180
   9         0.00044633
  10         0.00815852
  11         0.01106834
  12        -0.00890199
  13         0.00626889
  14         0.00016468
  15         0.00055918
  16         0.07444691
  17        -0.14742925
  18        -0.13197017
  19        -0.16036414
  20         0.09805160
  21         0.00224752
  22        -0.04336796
  23         0.03626574
  24         0.00084231
  25        -0.01017441
  26        -0.00582777
  27         0.00682326
  28        -0.00914325
  29        -0.00023302
  30        -0.00035769
  31         0.09976454
  32         0.03978924
  33         0.10267408
  34         0.04526461
  35         0.07444693
  36        -0.14742928
  37        -0.13197019
  38         0.10656840
  39         0.15480509
  40         0.00379296
  41         0.02485094
  42         0.05077002
  43         0.00123679
  44        -0.01534482
  45        -0.00066074
  46         0.00682664
  47         0.00425314
  48         0.00008476
  49        -0.00020483
  50        -0.08905819
  51        -0.03482590
  52        -0.10181893
  53         0.19653528
  54         0.17937644
  55         0.03025633
  56         0.06262436
  57         0.00152960
  58         0.01493748
  59         0.02778343
  60         0.00067929
  61         0.01268021
  62         0.00654961
  63        -0.00890495
  64        -0.00544669
  65        -0.00011261
  66         0.00042543
  67        -0.08905822
  68        -0.03482591
  69         0.10267410
  70         0.04526461
  71         0.09976456
  72         0.03978925
Sym=     8a  
Ene=    -0.7257
Spin= Alpha
Occup=    2.00000
   1         0.06101318
   2        -0.11900671
   3        -0.11531894
   4         0.11958339
   5        -0.16447566
   6        -0.00387049
   7         0.05804615
   8        -0.06079096
   9        -0.00142094
  10        -0.00627537
  11        -0.00969663
  12         0.00579789
  13        -0.01349461
  14        -0.00033434
  15        -0.00043991
  16        -0.08472882
  17         0.16826146
  18         0.15785213
  19        -0.08305345
  20        -0.09393977
  21        -0.00231502
  22        -0.01011975
  23        -0.07468431
  24        -0.00180203
  25        -0.00599325
  26         0.01490316
  27        -0.00604015
  28         0.00309623
  29         0.00007456
  30         0.00058388
  31        -0.09135367
  32        -0.04604651
  33        -0.13195650
  34        -0.07177549
  35         0.08472881
  36        -0.16826144
  37        -0.15785210
  38        -0.11410691
  39         0.05202083
  40         0.00117280
  41        -0.03964707
  42         0.06410323
  43         0.00151307
  44         0.00053606
  45        -0.00944954
  46         0.00604372
  47         0.01104321
  48         0.00026107
  49        -0.00042238
  50         0.13494430
  51         0.05946548
  52        -0.06101316
  53         0.11900667
  54         0.11531890
  55         0.04227679
  56         0.19888925
  57         0.00481218
  58         0.02827472
  59         0.07914391
  60         0.00192285
  61         0.01553515
  62         0.00044288
  63        -0.00580392
  64        -0.01049725
  65        -0.00023426
  66         0.00016647
  67        -0.13494430
  68        -0.05946548
  69         0.13195650
  70         0.07177549
  71         0.09135364
  72         0.04604650
Sym=     9a  
Ene=    -0.6673
Spin= Alpha
Occup=    2.00000
   1        -0.01039951
   2         0.01900015
   3         0.03367198
   4        -0.18752906
   5        -0.12288709
   6        -0.00308558
   7        -0.07225790
   8        -0.05198142
   9        -0.00130009
  10         0.00735233
  11        -0.00371235
  12        -0.00113747
  13         0.00514828
  14         0.00013098
  15        -0.00006787
  16         0.00771639
  17        -0.01903263
  18        -0.01009222
  19        -0.13107328
  20        -0.21642417
  21        -0.00529163
  22        -0.04259823
  23        -0.08037865
  24        -0.00196113
  25        -0.00472102
  26         0.00887162
  27        -0.00053778
  28        -0.00038757
  29        -0.00001234
  30         0.00026122
  31         0.13106440
  32         0.08325342
  33        -0.07479438
  34        -0.04913231
  35         0.00771640
  36        -0.01903265
  37        -0.01009224
  38         0.20783253
  39        -0.14436834
  40        -0.00332586
  41         0.07163254
  42        -0.05609168
  43        -0.00129842
  44        -0.00271849
  45         0.00687040
  46        -0.00053909
  47        -0.00557607
  48        -0.00013549
  49         0.00020206
  50         0.12810906
  51         0.08674005
  52        -0.01039951
  53         0.01900016
  54         0.03367198
  55         0.22132403
  56        -0.03595962
  57        -0.00070536
  58         0.08716490
  59        -0.01808606
  60        -0.00037227
  61         0.00883546
  62        -0.00519451
  63        -0.00113843
  64         0.00130551
  65         0.00004086
  66        -0.00011165
  67         0.12810907
  68         0.08674006
  69        -0.07479435
  70        -0.04913229
  71         0.13106443
  72         0.08325344
Sym=    10a  
Ene=    -0.6102
Spin= Alpha
Occup=    2.00000
   1         0.00154177
   2        -0.00650153
   3         0.03210764
   4        -0.15477764
   5         0.25584494
   6         0.00604334
   7        -0.04359061
   8         0.10256873
   9         0.00243568
  10        -0.00227223
  11         0.01309530
  12        -0.00147451
  13         0.01473254
  14         0.00035365
  15         0.00041500
  16         0.01121388
  17        -0.02175456
  18        -0.00470979
  19         0.24228907
  20        -0.15579775
  21        -0.00357863
  22         0.08131752
  23        -0.06365114
  24        -0.00147416
  25         0.00256716
  26         0.00384545
  27        -0.00003101
  28         0.00818732
  29         0.00019874
  30         0.00011340
  31         0.04159774
  32         0.03693052
  33         0.14459601
  34         0.10680717
  35         0.01121388
  36        -0.02175455
  37        -0.00470976
  38        -0.15789465
  39        -0.24088241
  40        -0.00589447
  41        -0.04836755
  42        -0.09122401
  43        -0.00222454
  44         0.00805250
  45        -0.00163633
  46        -0.00003458
  47        -0.00602507
  48        -0.00013829
  49        -0.00004841
  50         0.05104252
  51         0.03857395
  52         0.00154179
  53        -0.00650156
  54         0.03210762
  55         0.03722949
  56         0.29666830
  57         0.00715635
  58        -0.00193691
  59         0.11142490
  60         0.00267694
  61         0.00976324
  62         0.00106767
  63        -0.00148235
  64        -0.01645103
  65        -0.00038595
  66         0.00005980
  67         0.05104262
  68         0.03857402
  69         0.14459603
  70         0.10680718
  71         0.04159778
  72         0.03693055
Sym=    11a  
Ene=    -0.5831
Spin= Alpha
Occup=    2.00000
   1        -0.01054799
   2         0.02143770
   3         0.01983148
   4         0.29531483
   5         0.08412162
   6         0.00223274
   7         0.13456699
   8         0.05577800
   9         0.00143712
  10        -0.01529447
  11         0.00927897
  12         0.00020340
  13        -0.01264271
  14        -0.00031657
  15         0.00024304
  16        -0.01836821
  17         0.04082050
  18         0.01094826
  19        -0.04251410
  20         0.17785675
  21         0.00425088
  22        -0.02296216
  23         0.05191440
  24         0.00123462
  25        -0.00413900
  26        -0.00269416
  27         0.00025274
  28        -0.01470725
  29        -0.00035702
  30        -0.00009173
  31        -0.18347745
  32        -0.13653325
  33         0.08310648
  34         0.04908704
  35         0.01836821
  36        -0.04082049
  37        -0.01094825
  38         0.03356938
  39        -0.17975877
  40        -0.00428944
  41         0.00015915
  42        -0.05676274
  43        -0.00136050
  44         0.01337255
  45        -0.00653340
  46        -0.00025872
  47        -0.00921664
  48        -0.00021056
  49        -0.00017995
  50        -0.08406711
  51        -0.07380427
  52         0.01054800
  53        -0.02143770
  54        -0.01983151
  55         0.30399955
  56         0.04330006
  57         0.00126328
  58         0.14562648
  59         0.00379461
  60         0.00019794
  61         0.01936659
  62        -0.01334843
  63        -0.00020606
  64         0.00209189
  65         0.00006774
  66        -0.00036354
  67         0.08406712
  68         0.07380427
  69        -0.08310649
  70        -0.04908705
  71         0.18347737
  72         0.13653320
Sym=    12a  
Ene=    -0.5146
Spin= Alpha
Occup=    2.00000
   1        -0.01664711
   2         0.03479835
   3         0.02492907
   4         0.01774114
   5        -0.25923949
   6        -0.00622426
   7        -0.01701333
   8        -0.13977866
   9        -0.00337486
  10         0.01530056
  11        -0.02161853
  12        -0.00022833
  13        -0.00454073
  14        -0.00009677
  15        -0.00059715
  16         0.01273978
  17        -0.02329644
  18        -0.05155210
  19        -0.07002066
  20         0.23357802
  21         0.00556297
  22         0.00080594
  23         0.13787856
  24         0.00331276
  25         0.01542080
  26        -0.02412202
  27         0.00170315
  28        -0.01579113
  29        -0.00036862
  30        -0.00072839
  31         0.06474597
  32         0.04395150
  33        -0.15696919
  34        -0.12813641
  35        -0.01273977
  36         0.02329643
  37         0.05155208
  38         0.03112722
  39        -0.24184715
  40        -0.00579370
  41         0.05686521
  42        -0.12561683
  43        -0.00298184
  44         0.00130143
  45         0.00741070
  46        -0.00171406
  47        -0.02753579
  48        -0.00065927
  49         0.00023421
  50        -0.16938379
  51        -0.13556724
  52         0.01664710
  53        -0.03479833
  54        -0.02492907
  55        -0.08932834
  56         0.24401941
  57         0.00579444
  58        -0.07244336
  59         0.12075919
  60         0.00284725
  61        -0.00625940
  62         0.01258324
  63         0.00022246
  64        -0.01888472
  65        -0.00045954
  66         0.00033061
  67         0.16938387
  68         0.13556730
  69         0.15696925
  70         0.12813645
  71        -0.06474611
  72        -0.04395163
Sym=    13a  
Ene=    -0.4914
Spin= Alpha
Occup=    2.00000
   1        -0.00358007
   2         0.00683976
   3         0.00411600
   4         0.17915857
   5         0.10544557
   6         0.00266268
   7         0.11154673
   8         0.07141713
   9         0.00179570
  10        -0.02341846
  11         0.02136640
  12        -0.00006987
  13        -0.00710745
  14        -0.00018991
  15         0.00059034
  16         0.01483938
  17        -0.03416328
  18        -0.04302357
  19        -0.25837347
  20        -0.14940446
  21        -0.00376860
  22        -0.12326890
  23        -0.09621264
  24        -0.00239763
  25        -0.02133794
  26         0.02383657
  27        -0.00003219
  28        -0.00514084
  29        -0.00014063
  30         0.00065947
  31        -0.14786390
  32        -0.12542564
  33         0.11053543
  34         0.10251718
  35         0.01483937
  36        -0.03416327
  37        -0.04302359
  38         0.29683151
  39        -0.03135992
  40        -0.00056141
  41         0.15176676
  42        -0.03773611
  43        -0.00080902
  44        -0.01716491
  45         0.01966628
  46        -0.00003495
  47        -0.01595305
  48        -0.00039715
  49         0.00053523
  50         0.13314836
  51         0.11917008
  52        -0.00358009
  53         0.00683982
  54         0.00411606
  55        -0.20657776
  56         0.02343320
  57         0.00040331
  58        -0.13096524
  59         0.01985605
  60         0.00037643
  61        -0.02057686
  62         0.01852663
  63        -0.00007170
  64        -0.01446993
  65        -0.00036531
  66         0.00050688
  67         0.13314819
  68         0.11916993
  69         0.11053533
  70         0.10251710
  71        -0.14786390
  72        -0.12542565
Sym=    14a  
Ene=    -0.4363
Spin= Alpha
Occup=    2.00000
   1        -0.00000008
   2         0.00000028
   3        -0.00000226
   4        -0.00015932
   5        -0.00539256
   6         0.22413246
   7        -0.00011924
   8        -0.00406231
   9         0.16887661
  10        -0.00001689
  11         0.00047652
  12        -0.00045965
  13        -0.00033380
  14         0.01421838
  15        -0.01144204
  16         0.00000075
  17        -0.00000175
  18        -0.00000253
  19        -0.00020695
  20        -0.00706444
  21         0.29378580
  22        -0.00014442
  23        -0.00490983
  24         0.20428902
  25         0.00000238
  26        -0.00051890
  27         0.00051659
  28         0.00003467
  29        -0.00179178
  30         0.01245760
  31         0.00000163
  32         0.00000257
  33        -0.00000230
  34        -0.00000094
  35        -0.00000092
  36         0.00000227
  37         0.00000040
  38        -0.00019382
  39        -0.00705700
  40         0.29378602
  41        -0.00013721
  42        -0.00491197
  43         0.20428900
  44         0.00000302
  45        -0.00050308
  46         0.00050002
  47         0.00007351
  48        -0.00343798
  49         0.01210787
  50         0.00000121
  51         0.00000227
  52         0.00000157
  53        -0.00000359
  54        -0.00000101
  55        -0.00017334
  56        -0.00538367
  57         0.22413270
  58        -0.00012858
  59        -0.00405748
  60         0.16887674
  61         0.00000881
  62         0.00067668
  63        -0.00068556
  64         0.00021068
  65        -0.00832678
  66        -0.01623232
  67         0.00000408
  68         0.00000339
  69         0.00000703
  70         0.00000578
  71        -0.00000771
  72        -0.00000974
Sym=    15a  
Ene=    -0.3214
Spin= Alpha
Occup=    2.00000
   1         0.00000046
   2        -0.00000072
   3        -0.00000417
   4         0.00021762
   5         0.00736620
   6        -0.30634399
   7         0.00018774
   8         0.00633598
   9        -0.26353184
  10         0.00001413
  11        -0.00050280
  12         0.00048872
  13         0.00028437
  14        -0.01218089
  15         0.01208110
  16         0.00000124
  17        -0.00000288
  18        -0.00000560
  19         0.00015659