   This run of MOLCAS is using the pymolcas driver

                             OPE
                             OPE          NMOL  CASOP  ENMOLC A   SO
                 OPE        NMOLC        AS  OP EN  MO LC     AS  OP
                OPENM       OL CA        SO  PE NM  OL CA     SOP EN
                OP EN      MO   LC       AS  OP ENMOL  CASO   PENMOL
                OP  EN     MO   LC       AS  OP EN     MO     LC ASO
               OP   E  NMOL  C  AS       OP  EN MO     LC     AS  OP
               OP  E   NMO   LC AS        OPEN  MO     LCASOP EN   M
               O  PEN   MO  LCA  SO
            OPE   NMO   L   CAS    OP
        OPENMOL  CASOP     ENMOL   CASOPE
     OPENMOLCA   SOPENMOLCASOPEN   MOLCASOPE
    OPENMOLCAS   OP           EN   MOL    CAS
    OPENMOLCAS       OP  ENM        O     LCA
    OPENMOLCAS    OPEN  MOLCASO     P  E  NMO
    OPENMOLCAS     OP               E  N  MOL
    OPENMOLCA   SO           PENM   O  L  CAS    OPEN    MO    LCAS
    OPENMOLCA   SOP           ENM   O  L  CAS   OP  EN  MOLC  AS   O
    OPENMOLCA   SOPE           NM      O  LCA   S      OP  EN MO
    OPENMOLC                AS         O  PEN   M      OL  CA  SOPE
    OPENMO        LCASOPE  NMOL        C  ASO   P      ENMOLC     AS
    OPE     NMO      LCA  SO     P     E   NM   OL  CA SO  PE N   MO
          OPENMOLCA            SOPE   NMO        LCAS  O    P  ENMO
     OPENMOLCASOPENMOLCASOPENMOLCASOPENMOLCA
        OPENMOLCASOPENMOLCASOPENMOLCASOPE
            OPENMOLCASOPENMOLCASOPENM
               OPENMOLCASOPENMOLCA        version: 24.02
                   OPENMOLCASO
                       OPE                tag: 428-g03afa2e9a

 OpenMolcas is free software; you can redistribute it and/or modify it
 under the terms of the GNU Lesser General Public License version 2.1.
 OpenMolcas is distributed in the hope that it will be useful, but it
 is provided "as is" and without any express or implied warranties.
 For more details see the full text of the license in the file
 LICENSE or in <http://www.gnu.org/licenses/>.

                 Copyright (C) The OpenMolcas Authors
           For the author list and the recommended citation,
                   consult the file CONTRIBUTORS.md

           *************************************************
           * pymolcas version py2.28                       *
           *   build c4a6d18ded8cb6cad61d2372a9abd97c      *
           *   (after the EMIL interpreter by V. Veryazov) *
           *************************************************

configuration info
------------------
Host name: DESKTOP-ET1S6F4 (Linux)
C Compiler ID: GNU
C flags: -std=gnu99 -fopenmp
Fortran Compiler ID: GNU
Fortran flags: -fno-aggressive-loop-optimizations -cpp -fdefault-integer-8 -fopenmp
Definitions: _WARNING_WORKAROUND_;_MOLCAS_;_I8_;_LINUX_
Parallel: OFF (GA=OFF)


   ----------------------------------------------------------------------
  |
  |           Project: cis-1,3-butadiene
  |    Submitted from: /home/kenya/molcas_test/0514
  |      Scratch area: /tmp/cis-1,3-butadiene
  |   Save outputs to: /home/kenya/molcas_test/0514
  |            Molcas: /home/kenya/OpenMolcas/builds/gnu_dev_omp
  |
  | Scratch area is NOT empty
  |
  |    MOLCAS_DRIVER = /home/kenya/OpenMolcas/builds/gnu_dev_omp/pymolcas
  |    MOLCAS_NPROCS = 1
  |    MOLCAS_SOURCE = /home/kenya/OpenMolcas
  | MOLCAS_STRUCTURE = 0
  |
   ----------------------------------------------------------------------

++ ---------   Input file   ---------

&GATEWAY
  Coord = 10
  Angstrom
C         -2.80725        1.72584        0.00201
C         -1.82830        0.81206       -0.01928
H         -3.84247        1.40008       -0.00654
H         -2.61449        2.79086        0.02775
C         -0.37548        1.12094       -0.01085
H         -2.11148       -0.23588       -0.04467
C          0.14674        2.35390        0.01914
H          0.30979        0.27891       -0.03061
H         -0.46289        3.24832        0.04021
H          1.22498        2.47749        0.02286

  Basis = 6-31G*
  Group = full
  NoCD

>>> DO WHILE

  &SEWARD

  &SCF

  &SLAPAF

>>> END DO

-- ----------------------------------

--- Start Module: gateway at Tue May 14 15:17:01 2024 ---

()()()()()()()()()()()()()()()()()()()()()()()()()()()()()()()()()()()()()()()()()()()()()()()()()()

                                              &GATEWAY

                                   only a single process is used
                       available to each process: 2.0 GB of memory, 1 thread
                                             pid: 44422
()()()()()()()()()()()()()()()()()()()()()()()()()()()()()()()()()()()()()()()()()()()()()()()()()()


++    Symmetry information:
      ---------------------

                    Character Table for C1 

                             E  
                    a        1  x, y, xy, Rz, z, xz, Ry, yz, Rx, I
--


++    Basis set information:
      ----------------------


      Basis set label: C.6-31G**....

      Electronic valence basis set:
      ------------------
      Associated Effective Charge   6.000000 au
      Associated Actual Charge      6.000000 au
      Nuclear Model: Point charge

      Shell  nPrim  nBasis  Cartesian Spherical Contaminant
         s      10       3        X                  
         p       4       2        X                  
         d       1       1        X                  


      Basis set label: H.6-31G....

      Electronic valence basis set:
      ------------------
      Associated Effective Charge   1.000000 au
      Associated Actual Charge      1.000000 au
      Nuclear Model: Point charge

      Shell  nPrim  nBasis  Cartesian Spherical Contaminant
         s       4       2        X                  


      Basis set label: C.6-31G**....

      Electronic valence basis set:
      ------------------
      Associated Effective Charge   6.000000 au
      Associated Actual Charge      6.000000 au
      Nuclear Model: Point charge

      Shell  nPrim  nBasis  Cartesian Spherical Contaminant
         s      10       3        X                  
         p       4       2        X                  
         d       1       1        X                  


      Basis set label: H.6-31G....

      Electronic valence basis set:
      ------------------
      Associated Effective Charge   1.000000 au
      Associated Actual Charge      1.000000 au
      Nuclear Model: Point charge

      Shell  nPrim  nBasis  Cartesian Spherical Contaminant
         s       4       2        X                  


      Basis set label: C.6-31G**....

      Electronic valence basis set:
      ------------------
      Associated Effective Charge   6.000000 au
      Associated Actual Charge      6.000000 au
      Nuclear Model: Point charge

      Shell  nPrim  nBasis  Cartesian Spherical Contaminant
         s      10       3        X                  
         p       4       2        X                  
         d       1       1        X                  


      Basis set label: H.6-31G....

      Electronic valence basis set:
      ------------------
      Associated Effective Charge   1.000000 au
      Associated Actual Charge      1.000000 au
      Nuclear Model: Point charge

      Shell  nPrim  nBasis  Cartesian Spherical Contaminant
         s       4       2        X                  
--


++    Molecular structure info:
      -------------------------

                    ************************************************ 
                    **** Cartesian Coordinates / Bohr, Angstrom **** 
                    ************************************************ 

     Center  Label                x              y              z                     x              y              z
        1      C1              -5.304934       3.261365       0.003798             -2.807250       1.725840       0.002010
        2      C2              -3.454986       1.534571      -0.036434             -1.828300       0.812060      -0.019280
        3      H3              -7.261216       2.645768      -0.012359             -3.842470       1.400080      -0.006540
        4      H4              -4.940670       5.273961       0.052440             -2.614490       2.790860       0.027750
        5      C5              -0.709554       2.118270      -0.020504             -0.375480       1.120940      -0.010850
        6      H6              -3.990119      -0.445749      -0.084414             -2.111480      -0.235880      -0.044670
        7      C7               0.277298       4.448226       0.036169              0.146740       2.353900       0.019140
        8      H8               0.585418       0.527064      -0.057845              0.309790       0.278910      -0.030610
        9      H9              -0.874735       6.138435       0.075986             -0.462890       3.248320       0.040210
       10      H10              2.314877       4.681778       0.043199              1.224980       2.477490       0.022860

                    *************************************** 
                    *    InterNuclear Distances / Bohr    * 
                    *************************************** 

               1 C1            2 C2            3 H3            4 H4            5 C5            6 H6    
    1 C1       0.000000
    2 C2       2.530957        0.000000
    3 H3       2.050917        3.965189        0.000000
    4 H4       2.045873        4.024698        3.506641        0.000000
    5 C5       4.735480        2.806841        6.572868        5.278830        0.000000
    6 H6       3.934363        2.051910        4.501415        5.799772        4.164178        0.000000
    7 C7       5.707101        4.735463        7.751155        5.282925        2.530966        6.494335
    8 H8       6.494340        4.164180        8.127770        7.285798        2.051898        4.677885
    9 H9       5.282935        5.278816        7.279675        4.156885        4.024714        7.285796
   10 H10      7.751170        6.572866        9.790300        7.279679        3.965200        8.127778

               7 C7            8 H8            9 H9           10 H10   
    7 C7       0.000000
    8 H8       3.934373        0.000000
    9 H9       2.045867        5.799780        0.000000
   10 H10      2.050932        4.501431        3.506644        0.000000

                    ******************************************* 
                    *    InterNuclear Distances / Angstrom    * 
                    ******************************************* 

               1 C1            2 C2            3 H3            4 H4            5 C5            6 H6    
    1 C1       0.000000
    2 C2       1.339325        0.000000
    3 H3       1.085299        2.098288        0.000000
    4 H4       1.082629        2.129778        1.855635        0.000000
    5 C5       2.505908        1.485316        3.478212        2.793437        0.000000
    6 H6       2.081975        1.085824        2.382046        3.069107        2.203588        0.000000
    7 C7       3.020068        2.505899        4.101735        2.795604        1.339329        3.436654
    8 H8       3.436657        2.203589        4.301031        3.855478        1.085818        2.475430
    9 H9       2.795609        2.793429        3.852238        2.199729        2.129787        3.855477
   10 H10      4.101742        3.478211        5.180804        3.852240        2.098294        4.301035

               7 C7            8 H8            9 H9           10 H10   
    7 C7       0.000000
    8 H8       2.081981        0.000000
    9 H9       1.082626        3.069112        0.000000
   10 H10      1.085306        2.382055        1.855636        0.000000

                    ************************************** 
                    *    Valence Bond Angles / Degree    * 
                    ************************************** 
                          Atom centers                 Phi
                      2 C2       1 C1       3 H3       119.49
                      2 C2       1 C1       4 H4       122.78
                      3 H3       1 C1       4 H4       117.73
                      1 C1       2 C2       5 C5       124.96
                      1 C1       2 C2       6 H6       117.92
                      5 C5       2 C2       6 H6       117.12
                      2 C2       5 C5       7 C7       124.96
                      2 C2       5 C5       8 H8       117.12
                      7 C7       5 C5       8 H8       117.92
                      5 C5       7 C7       9 H9       122.78
                      5 C5       7 C7      10 H10      119.49
                      9 H9       7 C7      10 H10      117.73

           ***************************************************************
           *              Valence Dihedral Angles / Degree               *
           ***************************************************************
                    Atom centers                       Phi1     Phi2     Theta 
           3 H3       1 C1       2 C2       5 C5        119.49   124.96   180.00
           3 H3       1 C1       2 C2       6 H6        119.49   117.92    -0.00
           4 H4       1 C1       2 C2       5 C5        122.78   124.96    -0.00
           4 H4       1 C1       2 C2       6 H6        122.78   117.92   180.00
           1 C1       2 C2       5 C5       7 C7        124.96   124.96    -0.00
           1 C1       2 C2       5 C5       8 H8        124.96   117.12   180.00
           6 H6       2 C2       5 C5       7 C7        117.12   124.96   180.00
           6 H6       2 C2       5 C5       8 H8        117.12   117.12    -0.00
           2 C2       5 C5       7 C7       9 H9        124.96   122.78     0.00
           2 C2       5 C5       7 C7      10 H10       124.96   119.49   180.00
           8 H8       5 C5       7 C7       9 H9        117.92   122.78   180.00
           8 H8       5 C5       7 C7      10 H10       117.92   119.49    -0.00
--


            Nuclear Potential Energy            104.76782328 au

--- Stop Module: gateway at Tue May 14 15:17:01 2024 /rc=_RC_ALL_IS_WELL_ ---
*** files: xmldump
    saved to directory /home/kenya/molcas_test/0514

--- Start Module: seward at Tue May 14 15:17:01 2024 ---

()()()()()()()()()()()()()()()()()()()()()()()()()()()()()()()()()()()()()()()()()()()()()()()()()()

                                              &SEWARD

                                   only a single process is used
                       available to each process: 2.0 GB of memory, 1 thread
                                             pid: 44426
()()()()()()()()()()()()()()()()()()()()()()()()()()()()()()()()()()()()()()()()()()()()()()()()()()

               SEWARD will generate:
                  Multipole Moment integrals up to order  2
                  Kinetic Energy integrals
                  Nuclear Attraction integrals (point charge)
                  One-Electron Hamiltonian integrals
                  Velocity integrals
                  Orbital angular momentum around (-2.3051  2.8738 -0.0035 )
                  Velocity quadrupole around (-2.3051  2.8738 -0.0035 )
                  Two-Electron Repulsion integrals

                   Integrals are discarded if absolute value <: 1.00E-14
                   Integral cutoff threshold is set to       <: 1.00E-16

            Nuclear Potential Energy            104.76782328 au


      Basis set specifications :
      Symmetry species         a  
      Basis functions           72


      Input file to MOLDEN was generated!

--- Stop Module: seward at Tue May 14 15:17:03 2024 /rc=_RC_ALL_IS_WELL_ ---
*** files: cis-1,3-butadiene.GssOrb cis-1,3-butadiene.guessorb.molden xmldump
    saved to directory /home/kenya/molcas_test/0514
--- Module seward spent 1 second ---

*** symbolic link created: INPORB -> cis-1,3-butadiene.GssOrb
--- Start Module: scf at Tue May 14 15:17:03 2024 ---

()()()()()()()()()()()()()()()()()()()()()()()()()()()()()()()()()()()()()()()()()()()()()()()()()()

                                                &SCF

                                   only a single process is used
                       available to each process: 2.0 GB of memory, 1 thread
                                             pid: 44463
()()()()()()()()()()()()()()()()()()()()()()()()()()()()()()()()()()()()()()()()()()()()()()()()()()

++    Input section:
      --------------

      Header of the integral files:
      
       Integrals generated by Gateway/Seward, Tue May 14 15:17:02 2024


      Cartesian coordinates in Angstrom:
      -----------------------------------------------------
      No.  Label        X            Y            Z        
      -----------------------------------------------------
       1   C1        -2.80725000   1.72584000   0.00201000
       2   C2        -1.82830000   0.81206000  -0.01928000
       3   H3        -3.84247000   1.40008000  -0.00654000
       4   H4        -2.61449000   2.79086000   0.02775000
       5   C5        -0.37548000   1.12094000  -0.01085000
       6   H6        -2.11148000  -0.23588000  -0.04467000
       7   C7         0.14674000   2.35390000   0.01914000
       8   H8         0.30979000   0.27891000  -0.03061000
       9   H9        -0.46289000   3.24832000   0.04021000
      10   H10        1.22498000   2.47749000   0.02286000
      -----------------------------------------------------
      Nuclear repulsion energy =  104.76782328
--

++    Orbital specifications:
      -----------------------

      Symmetry species               1
                                     a
      Frozen orbitals                0
      Occupied orbitals             15
      Secondary orbitals            57
      Deleted orbitals               0
      Total number of orbitals      72
      Number of basis functions     72
--

      Molecular charge                           0.000

++    Optimization specifications:
      ----------------------------

      SCF Algorithm: Conventional
      Minimized density differences are used
      Number of density matrices in core                 5
      Maximum number of NDDO SCF iterations            400
      Maximum number of HF SCF iterations              400
      Threshold for SCF energy change             1.00E-09
      Threshold for density matrix                1.00E-04
      Threshold for Fock matrix                   1.50E-04
      Threshold for linear dependence             1.00E-09
      Threshold at which DIIS is turned on        1.50E-01
      Maximum depth in the DIIS procedure                5
      Maximum depth in the BFGS Hessian update          30
      Threshold at which QNR/C2DIIS is turned on  7.50E-02
      Threshold for Norm(delta) (QNR/C2DIIS)      1.00E-03
      All orbitals punched on: SCFORB
--

      Input vectors read from INPORB
      Orbital file label: *Guess orbitals


++ Convergence information
                                   SCF        iterations: Energy and convergence statistics

Iter     Tot. SCF        One-elec.       Two-elec.     Energy      Max Dij or  Max Fij      DNorm      TNorm      AccCon     Time
         Energy          Energy          Energy        Change      Delta Norm                                                in Sec.
   1  -154.616946133  -410.784431322   151.399661906   0.00E+00    1.70E-01*   1.29E-01*    5.64E+00   1.66E+02   None         0.
   2  -154.884596130  -416.370088862   156.717669449  -2.68E-01*   1.11E-01*   6.47E-02*    1.16E+00   1.68E+02   EDIIS        0.
   3  -154.907679509  -414.463743343   154.788240550  -2.31E-02*   2.63E-02*   1.11E-02*    4.29E-01   1.67E+02   c2DIIS       0.
   4  -154.911257295  -415.108192828   155.429112249  -3.58E-03*   1.46E-02*   5.60E-03*    1.26E-01   1.68E+02   QNRc2DIIS    0.
   5  -154.911537803  -414.998769164   155.319408077  -2.81E-04*   5.51E-03*   2.86E-03*    3.44E-02   1.68E+02   QNRc2DIIS    0.
   6  -154.911634187  -415.031069754   155.351612284  -9.64E-05*   1.03E-03*   3.49E-04*    4.49E-03   1.68E+02   QNRc2DIIS    0.
   7  -154.911635839  -415.042404910   155.362945788  -1.65E-06*   1.80E-04    9.20E-05     1.06E-03   1.68E+02   QNRc2DIIS    0.
   8  -154.911635937  -415.039301439   155.359842218  -9.82E-08*   6.16E-05    2.01E-05     1.87E-04   1.68E+02   QNRc2DIIS    0.
   9  -154.911635942  -415.039292074   155.359832850  -4.69E-09*   8.90E-06    2.86E-06     4.98E-05   1.68E+02   QNRc2DIIS    0.
  10  -154.911635942  -415.039295543   155.359836318  -1.20E-10    3.25E-06    7.07E-07     4.79E-05   1.68E+02   QNRc2DIIS    0.

       Convergence after  10 Macro Iterations
--

 *****************************************************************************************************************************
 *                                                                                                                           *
 *                                             SCF/KS-DFT Program, Final results                                             *
 *                                                                                                                           *
 *                                                                                                                           *
 *                                                                                                                           *
 *                                                       Final Results                                                       *
 *                                                                                                                           *
 *****************************************************************************************************************************

::    Total SCF energy                               -154.9116359419
      One-electron energy                            -415.0392955433
      Two-electron energy                             155.3598363183
      Nuclear repulsion energy                        104.7678232832
      Kinetic energy (interpolated)                   154.6081114665
      Virial theorem                                    1.0019631860
      Total spin, S(S+1)                                0.0000000000
      Total spin, S                                     0.0000000000
      Max non-diagonal density matrix element           0.0000048027
      Max non-diagonal Fock matrix element              0.0000006317


      All orbitals with orbital energies smaller than  E(LUMO)+0.5 are printed

++    Molecular orbitals:
      -------------------

      Title: SCF orbitals

      Molecular orbitals for symmetry species 1: a  

          Orbital            1         2         3         4         5         6         7         8         9        10    
          Energy          -11.2375  -11.2368  -11.2263  -11.2263   -1.0811   -0.9876   -0.8358   -0.7229   -0.6659   -0.6048
          Occ. No.          2.0000    2.0000    2.0000    2.0000    2.0000    2.0000    2.0000    2.0000    2.0000    2.0000

        1 C1     1s         0.0502   -0.0544    0.6300   -0.7674   -0.0928    0.1258   -0.1014    0.0623   -0.0111    0.0016
        2 C1     2s         0.0011   -0.0013    0.0174   -0.0212    0.1750   -0.2380    0.1961   -0.1215    0.0205   -0.0072
        3 C1     *s         0.0023   -0.0031   -0.0081    0.0090    0.1302   -0.2079    0.1830   -0.1196    0.0332    0.0303
        4 C1     2px       -0.0001    0.0001    0.0001   -0.0000    0.0617   -0.0409   -0.0517    0.1082   -0.1838   -0.1453
        5 C1     *px        0.0011   -0.0013   -0.0007    0.0003    0.0075   -0.0062   -0.0229    0.0544   -0.0739   -0.0404
        6 C1     2py        0.0001   -0.0001    0.0000    0.0000   -0.0463    0.0558    0.0491   -0.1635   -0.1267    0.2567
        7 C1     *py       -0.0005    0.0005    0.0002   -0.0005   -0.0043    0.0015    0.0205   -0.0615   -0.0537    0.1043
        8 C1     2pz        0.0000   -0.0000    0.0000    0.0000   -0.0011    0.0013    0.0011   -0.0039   -0.0032    0.0061
        9 C1     *pz       -0.0000    0.0000    0.0000   -0.0000   -0.0001    0.0000    0.0005   -0.0014   -0.0013    0.0025
       10 C1     *200      -0.0001    0.0002   -0.0006    0.0008    0.0043   -0.0053    0.0046   -0.0038    0.0045   -0.0013
       11 C1     *110      -0.0000   -0.0000   -0.0001    0.0002   -0.0054    0.0040    0.0071   -0.0137    0.0044    0.0153
       12 C1     *101      -0.0000   -0.0000   -0.0000    0.0000   -0.0001    0.0001    0.0002   -0.0003    0.0001    0.0004
       13 C1     *020      -0.0001    0.0002   -0.0006    0.0008    0.0033   -0.0055    0.0063   -0.0051   -0.0026    0.0072
       14 C1     *011      -0.0000    0.0000    0.0000   -0.0000    0.0004   -0.0006    0.0006   -0.0004   -0.0001    0.0004
       15 C1     *002      -0.0001    0.0001   -0.0009    0.0011   -0.0044    0.0060   -0.0051    0.0034   -0.0006   -0.0008
       16 C2     1s         0.7018   -0.7023   -0.0497    0.0557   -0.1297    0.0899    0.0755   -0.0848    0.0061    0.0104
       17 C2     2s         0.0194   -0.0193   -0.0015    0.0018    0.2485   -0.1743   -0.1498    0.1688   -0.0161   -0.0207
       18 C2     *s        -0.0062    0.0119    0.0038   -0.0036    0.1693   -0.1269   -0.1368    0.1603   -0.0057   -0.0034
       19 C2     2px        0.0001   -0.0002    0.0001   -0.0001    0.0110    0.1208   -0.1545   -0.0835   -0.1473    0.2218
       20 C2     *px        0.0006    0.0013   -0.0007    0.0010    0.0050    0.0230   -0.0415   -0.0140   -0.0489    0.0751
       21 C2     2py        0.0000   -0.0001   -0.0001    0.0001    0.0525   -0.0432    0.0981   -0.0969   -0.2041   -0.1787
       22 C2     *py       -0.0004    0.0017    0.0011   -0.0009    0.0012    0.0161    0.0361   -0.0761   -0.0760   -0.0751
       23 C2     2pz        0.0000   -0.0000   -0.0000    0.0000    0.0013   -0.0010    0.0023   -0.0024   -0.0050   -0.0041
       24 C2     *pz       -0.0000    0.0000    0.0000   -0.0000    0.0000    0.0004    0.0008   -0.0018   -0.0019   -0.0018
       25 C2     *200      -0.0009    0.0003   -0.0001    0.0000    0.0077    0.0010   -0.0061   -0.0034   -0.0027    0.0015
       26 C2     *110      -0.0002    0.0002   -0.0000   -0.0000   -0.0012    0.0098   -0.0097    0.0044   -0.0004    0.0085
       27 C2     *101      -0.0000    0.0000   -0.0000   -0.0000   -0.0000    0.0002   -0.0002    0.0001   -0.0000    0.0002
       28 C2     *020      -0.0008    0.0006   -0.0001    0.0000    0.0037   -0.0049   -0.0028    0.0086    0.0050    0.0023
       29 C2     *011       0.0000   -0.0000   -0.0000    0.0000    0.0005   -0.0004   -0.0003    0.0006    0.0003    0.0001
       30 C2     *002      -0.0010    0.0009    0.0000   -0.0000   -0.0063    0.0035    0.0039   -0.0035   -0.0003   -0.0001
       31 H3     1s        -0.0000    0.0000   -0.0001    0.0001    0.0419   -0.0773    0.0984   -0.0885    0.1296    0.0392
       32 H3     *s         0.0003   -0.0001    0.0012   -0.0017    0.0066   -0.0200    0.0407   -0.0453    0.0823    0.0364
       33 H4     1s        -0.0001    0.0001   -0.0001    0.0001    0.0470   -0.0668    0.1046   -0.1303   -0.0803    0.1440
       34 H4     *s        -0.0001    0.0002    0.0017   -0.0015    0.0090   -0.0087    0.0473   -0.0714   -0.0532    0.1083
       35 C5     1s         0.7024    0.7018    0.0595    0.0450   -0.1297   -0.0899    0.0755    0.0848    0.0061    0.0104
       36 C5     2s         0.0194    0.0193    0.0018    0.0015    0.2485    0.1743   -0.1498   -0.1688   -0.0162   -0.0207
       37 C5     *s        -0.0062   -0.0119   -0.0044   -0.0028    0.1693    0.1269   -0.1368   -0.1603   -0.0057   -0.0034
       38 C5     2px       -0.0001   -0.0002    0.0001    0.0000   -0.0315    0.0928    0.1011   -0.1157    0.2176   -0.1299
       39 C5     *px       -0.0004    0.0019   -0.0003   -0.0005   -0.0051    0.0276    0.0232   -0.0438    0.0756   -0.0380
       40 C5     2py       -0.0000    0.0000    0.0002    0.0002    0.0435    0.0886    0.1525    0.0545   -0.1265   -0.2535
       41 C5     *py       -0.0006   -0.0010   -0.0015   -0.0010   -0.0010   -0.0053    0.0498    0.0639   -0.0495   -0.0991
       42 C5     2pz       -0.0000    0.0000    0.0000    0.0000    0.0010    0.0022    0.0037    0.0012   -0.0029   -0.0062
       43 C5     *pz       -0.0000   -0.0000   -0.0000   -0.0000   -0.0000   -0.0001    0.0012    0.0015   -0.0011   -0.0024
       44 C5     *200      -0.0010   -0.0004    0.0001    0.0000    0.0066   -0.0037   -0.0092   -0.0002   -0.0016    0.0048
       45 C5     *110       0.0000    0.0003    0.0000    0.0000    0.0037    0.0022    0.0040    0.0119   -0.0055   -0.0063
       46 C5     *101       0.0000    0.0000    0.0000    0.0000    0.0001    0.0001    0.0001    0.0003   -0.0001   -0.0001
       47 C5     *020      -0.0008   -0.0005    0.0001    0.0000    0.0048    0.0076    0.0003   -0.0050    0.0038   -0.0010
       48 C5     *011       0.0000    0.0000    0.0000    0.0000    0.0005    0.0005   -0.0002   -0.0004    0.0002   -0.0001
       49 C5     *002      -0.0010   -0.0009   -0.0001   -0.0000   -0.0063   -0.0035    0.0039    0.0035   -0.0003   -0.0001
       50 H6     1s        -0.0002    0.0001   -0.0000    0.0000    0.0623   -0.0561   -0.0875    0.1382    0.1262    0.0623
       51 H6     *s         0.0013   -0.0011   -0.0002    0.0001    0.0092   -0.0061   -0.0348    0.0622    0.0857    0.0469
       52 C7     1s         0.0502    0.0544   -0.7671   -0.6303   -0.0928   -0.1258   -0.1014   -0.0623   -0.0111    0.0016
       53 C7     2s         0.0011    0.0013   -0.0212   -0.0174    0.1750    0.2380    0.1961    0.1215    0.0205   -0.0072
       54 C7     *s         0.0023    0.0031    0.0097    0.0072    0.1302    0.2079    0.1830    0.1196    0.0332    0.0303
       55 C7     2px        0.0001    0.0000    0.0001   -0.0000   -0.0375   -0.0147    0.0272    0.0323    0.2195    0.0282
       56 C7     *px       -0.0008   -0.0010   -0.0006    0.0000   -0.0051   -0.0051    0.0125    0.0247    0.0894   -0.0056
       57 C7     2py        0.0001    0.0001    0.0000    0.0000   -0.0674   -0.0676    0.0659    0.1934   -0.0410    0.2936
       58 C7     *py       -0.0009   -0.0010   -0.0005   -0.0005   -0.0070   -0.0039    0.0280    0.0784   -0.0189    0.1117
       59 C7     2pz        0.0000    0.0000    0.0000    0.0000   -0.0016   -0.0016    0.0016    0.0047   -0.0008    0.0071
       60 C7     *pz       -0.0000   -0.0000   -0.0000   -0.0000   -0.0002   -0.0001    0.0007    0.0019   -0.0004    0.0027
       61 C7     *200      -0.0001   -0.0002    0.0009    0.0007    0.0021    0.0038    0.0075    0.0091    0.0049    0.0058
       62 C7     *110       0.0000    0.0000   -0.0001   -0.0001    0.0043    0.0025   -0.0061   -0.0102    0.0023   -0.0166
       63 C7     *101       0.0000    0.0000   -0.0000   -0.0000    0.0001    0.0001   -0.0001   -0.0002    0.0001   -0.0004
       64 C7     *020      -0.0001   -0.0002    0.0007    0.0006    0.0055    0.0070    0.0034   -0.0002   -0.0031    0.0001
       65 C7     *011      -0.0000   -0.0000   -0.0000   -0.0000    0.0005    0.0006    0.0004    0.0001   -0.0001    0.0000
       66 C7     *002      -0.0001   -0.0001    0.0011    0.0009   -0.0044   -0.0060   -0.0051   -0.0034   -0.0006   -0.0008
       67 H8     1s        -0.0002   -0.0001    0.0000    0.0000    0.0623    0.0561   -0.0875   -0.1382    0.1262    0.0623
       68 H8     *s         0.0013    0.0011    0.0002    0.0000    0.0092    0.0061   -0.0348   -0.0622    0.0857    0.0469
       69 H9     1s        -0.0001   -0.0001    0.0001    0.0001    0.0470    0.0668    0.1046    0.1303   -0.0803    0.1441
       70 H9     *s        -0.0001   -0.0002   -0.0020   -0.0011    0.0090    0.0087    0.0473    0.0714   -0.0532    0.1083
       71 H10    1s        -0.0000   -0.0000    0.0001    0.0001    0.0419    0.0773    0.0984    0.0884    0.1296    0.0392
       72 H10    *s         0.0003    0.0001   -0.0015   -0.0014    0.0066    0.0200    0.0407    0.0453    0.0823    0.0364

          Orbital           11        12        13        14        15        16        17        18        19        20    
          Energy           -0.5760   -0.5154   -0.4938   -0.4328   -0.3168    0.1200    0.2462    0.2592    0.2719    0.3029
          Occ. No.          2.0000    2.0000    2.0000    2.0000    2.0000    0.0000    0.0000    0.0000    0.0000    0.0000

        1 C1     1s        -0.0108   -0.0149   -0.0027    0.0000    0.0000   -0.0000    0.0565    0.0679   -0.0000    0.0463
        2 C1     2s         0.0226    0.0318    0.0058   -0.0000   -0.0000    0.0000   -0.0772   -0.0710    0.0000   -0.0214
        3 C1     *s         0.0193    0.0187   -0.0002   -0.0000   -0.0000   -0.0000   -0.7694   -1.1158    0.0000   -1.1780
        4 C1     2px        0.2990    0.0140    0.1876   -0.0002    0.0002   -0.0002    0.0920   -0.0216    0.0001    0.1965
        5 C1     *px        0.1390   -0.0193    0.1160   -0.0001    0.0002   -0.0004    0.4035   -0.0897    0.0004    0.5719
        6 C1     2py        0.0741   -0.2627    0.0878   -0.0054    0.0074   -0.0066   -0.0080   -0.1608    0.0047    0.0474
        7 C1     *py        0.0528   -0.1395    0.0620   -0.0041    0.0064   -0.0122   -0.1770   -0.5437    0.0133    0.2603
        8 C1     2pz        0.0020   -0.0063    0.0022    0.2226   -0.3063    0.2741   -0.0001   -0.0039   -0.1967    0.0013
        9 C1     *pz        0.0014   -0.0034    0.0016    0.1705   -0.2668    0.5074   -0.0040   -0.0131   -0.5541    0.0067
       10 C1     *200      -0.0093    0.0083   -0.0134   -0.0000    0.0000    0.0000    0.0088   -0.0013   -0.0000    0.0016
       11 C1     *110      -0.0124   -0.0063   -0.0062   -0.0003    0.0003    0.0002    0.0076    0.0020   -0.0004    0.0033
       12 C1     *101      -0.0003   -0.0001   -0.0002    0.0137   -0.0115   -0.0097    0.0002    0.0000    0.0166    0.0001
       13 C1     *020       0.0059   -0.0121    0.0119    0.0003   -0.0003   -0.0002   -0.0050    0.0027    0.0005   -0.0009
       14 C1     *011       0.0003   -0.0006    0.0006   -0.0118    0.0124    0.0078   -0.0003   -0.0000   -0.0207   -0.0002
       15 C1     *002       0.0001   -0.0001    0.0001   -0.0003    0.0003    0.0002    0.0008    0.0035   -0.0005    0.0034
       16 C2     1s        -0.0199    0.0114    0.0134   -0.0000    0.0000    0.0000    0.0406   -0.0368    0.0000    0.0263
       17 C2     2s         0.0445   -0.0202   -0.0310    0.0000   -0.0000    0.0000   -0.0399    0.0433   -0.0000   -0.0107
       18 C2     *s         0.0190   -0.0459   -0.0369   -0.0000   -0.0000   -0.0000   -0.8184    0.5212   -0.0000   -0.6514
       19 C2     2px       -0.0396   -0.0647   -0.2707   -0.0002    0.0002    0.0002    0.0350   -0.0256   -0.0002    0.0417
       20 C2     *px       -0.0237    0.0007   -0.1302   -0.0001    0.0002    0.0003    0.1611   -0.1322   -0.0005   -0.2533
       21 C2     2py        0.1743    0.2340   -0.1360   -0.0070    0.0057    0.0052    0.1453   -0.0700   -0.0077    0.1355
       22 C2     *py        0.0536    0.1391   -0.0890   -0.0050    0.0052    0.0089    0.4100   -0.1367   -0.0184    0.6128
       23 C2     2pz        0.0042    0.0056   -0.0035    0.2930   -0.2380   -0.2178    0.0035   -0.0017    0.3191    0.0033
       24 C2     *pz        0.0013    0.0033   -0.0022    0.2062   -0.2177   -0.3689    0.0100   -0.0034    0.7671    0.0146
       25 C2     *200      -0.0028    0.0080   -0.0123    0.0000   -0.0000    0.0000   -0.0043    0.0062    0.0000   -0.0036
       26 C2     *110      -0.0144   -0.0173   -0.0037    0.0000   -0.0005    0.0006    0.0135    0.0012    0.0003   -0.0083
       27 C2     *101      -0.0004   -0.0004   -0.0001   -0.0012    0.0225   -0.0249    0.0003    0.0000   -0.0107   -0.0002
       28 C2     *020      -0.0009   -0.0129    0.0136   -0.0003    0.0003   -0.0003    0.0068   -0.0070    0.0003    0.0040
       29 C2     *011      -0.0001   -0.0007    0.0007    0.0129   -0.0108    0.0127    0.0003   -0.0002   -0.0140    0.0001
       30 C2     *002       0.0001    0.0009    0.0000    0.0003   -0.0002    0.0003    0.0015   -0.0019   -0.0003    0.0018
       31 H3     1s        -0.1851    0.0617   -0.1488    0.0000   -0.0000   -0.0000    0.0431    0.0101    0.0000    0.0070
       32 H3     *s        -0.1404    0.0411   -0.1263    0.0000    0.0000   -0.0000    0.8908    0.1791   -0.0000    1.3311
       33 H4     1s         0.0835   -0.1580    0.1030   -0.0000    0.0000    0.0000   -0.0151    0.0249   -0.0000    0.0114
       34 H4     *s         0.0494   -0.1293    0.0953    0.0000    0.0000    0.0000    0.3248    1.2264   -0.0000    0.0038
       35 C5     1s         0.0199   -0.0114    0.0134   -0.0000    0.0000   -0.0000    0.0407   -0.0368    0.0000   -0.0263
       36 C5     2s        -0.0445    0.0202   -0.0310    0.0000    0.0000    0.0000   -0.0399    0.0433   -0.0000    0.0107
       37 C5     *s        -0.0190    0.0459   -0.0369    0.0000   -0.0000    0.0000   -0.8184    0.5212   -0.0000    0.6515
       38 C5     2px        0.0348    0.0362    0.3027   -0.0002   -0.0002    0.0002   -0.0911    0.0519    0.0002    0.0933
       39 C5     *px        0.0002    0.0573    0.1551   -0.0001   -0.0002    0.0003   -0.3141    0.1764    0.0005    0.0181
       40 C5     2py       -0.1754   -0.2401   -0.0141   -0.0070   -0.0057    0.0052    0.1185   -0.0535    0.0077   -0.1068
       41 C5     *py       -0.0586   -0.1268   -0.0283   -0.0050   -0.0052    0.0089    0.3090   -0.0711    0.0184   -0.6628
       42 C5     2pz       -0.0042   -0.0057   -0.0001    0.2930    0.2380   -0.2178    0.0028   -0.0013   -0.3191   -0.0025
       43 C5     *pz       -0.0014   -0.0030   -0.0006    0.2062    0.2177   -0.3690    0.0072   -0.0016   -0.7671   -0.0159
       44 C5     *200       0.0078    0.0019   -0.0094    0.0000   -0.0000   -0.0000    0.0025    0.0044    0.0000    0.0054
       45 C5     *110      -0.0082   -0.0271   -0.0168    0.0001   -0.0004   -0.0004   -0.0173    0.0090    0.0004    0.0000
       46 C5     *101      -0.0002   -0.0006   -0.0004   -0.0042    0.0162    0.0176   -0.0004    0.0002   -0.0155    0.0000
       47 C5     *020      -0.0042    0.0030    0.0107   -0.0003   -0.0005   -0.0005   -0.0001   -0.0052   -0.0002   -0.0058
       48 C5     *011      -0.0002    0.0002    0.0005    0.0123    0.0191    0.0217   -0.0001   -0.0002    0.0084   -0.0002
       49 C5     *002      -0.0001   -0.0010    0.0000    0.0003    0.0005    0.0005    0.0015   -0.0019    0.0002   -0.0018
       50 H6     1s        -0.0797   -0.1656    0.1319    0.0000    0.0000   -0.0000    0.0283   -0.0296   -0.0000    0.0006
       51 H6     *s        -0.0713   -0.1325    0.1164    0.0000    0.0000   -0.0000    0.9854   -0.6309    0.0000    0.9291
       52 C7     1s         0.0108    0.0149   -0.0027   -0.0000    0.0000    0.0000    0.0565    0.0679   -0.0000   -0.0463
       53 C7     2s        -0.0226   -0.0318    0.0058    0.0000   -0.0000   -0.0000   -0.0772   -0.0710    0.0000    0.0214
       54 C7     *s        -0.0193   -0.0187   -0.0002    0.0000   -0.0000   -0.0000   -0.7694   -1.1158    0.0000    1.1779
       55 C7     2px        0.3033   -0.0942   -0.2071   -0.0002   -0.0002   -0.0002   -0.0808    0.0852   -0.0001    0.1988
       56 C7     *px        0.1484   -0.0744   -0.1312   -0.0001   -0.0002   -0.0004   -0.2965    0.3033   -0.0004    0.6284
       57 C7     2py        0.0539    0.2457    0.0038   -0.0053   -0.0074   -0.0066   -0.0448   -0.1381   -0.0047    0.0367
       58 C7     *py        0.0083    0.1195    0.0095   -0.0041   -0.0064   -0.0122   -0.3258   -0.4601   -0.0133   -0.0051
       59 C7     2pz        0.0015    0.0058   -0.0001    0.2225    0.3063    0.2741   -0.0011   -0.0033    0.1967    0.0010
       60 C7     *pz        0.0003    0.0028    0.0001    0.1705    0.2668    0.5074   -0.0080   -0.0108    0.5541    0.0003
       61 C7     *200       0.0114   -0.0026   -0.0115    0.0000    0.0000   -0.0000    0.0093    0.0001   -0.0000   -0.0024
       62 C7     *110       0.0030   -0.0194   -0.0146    0.0002    0.0001   -0.0001    0.0052   -0.0043   -0.0002    0.0003
       63 C7     *101       0.0001   -0.0005   -0.0004   -0.0077   -0.0054    0.0056    0.0001   -0.0001    0.0068    0.0000
       64 C7     *020      -0.0080    0.0063    0.0100    0.0004    0.0004   -0.0003   -0.0055    0.0013   -0.0006    0.0017
       65 C7     *011      -0.0004    0.0003    0.0005   -0.0163   -0.0160    0.0110   -0.0003   -0.0001    0.0256    0.0002
       66 C7     *002      -0.0001    0.0001    0.0001   -0.0004   -0.0004    0.0003    0.0008    0.0035    0.0006   -0.0034
       67 H8     1s         0.0797    0.1656    0.1319   -0.0000    0.0000    0.0000    0.0283   -0.0296   -0.0000   -0.0006
       68 H8     *s         0.0713    0.1325    0.1163   -0.0000    0.0000    0.0000    0.9854   -0.6309    0.0000   -0.9291
       69 H9     1s        -0.0835    0.1580    0.1030    0.0000   -0.0000    0.0000   -0.0151    0.0249   -0.0000   -0.0114
       70 H9     *s        -0.0494    0.1293    0.0953   -0.0000    0.0000   -0.0000    0.3248    1.2264   -0.0000   -0.0038
       71 H10    1s         0.1851   -0.0617   -0.1488   -0.0000    0.0000    0.0000    0.0431    0.0101    0.0000   -0.0070
       72 H10    *s         0.1404   -0.0412   -0.1263   -0.0000    0.0000    0.0000    0.8908    0.1791    0.0000   -1.3311

          Orbital           21        22        23        24        25        26    
          Energy            0.3437    0.3585    0.3689    0.4650    0.5053    0.6171
          Occ. No.          0.0000    0.0000    0.0000    0.0000    0.0000    0.0000

        1 C1     1s         0.0616   -0.0292   -0.0560    0.0587   -0.0419   -0.0164
        2 C1     2s        -0.0716    0.0266    0.0370   -0.0037   -0.0218   -0.0560
        3 C1     *s        -0.7788    0.7237    1.4880   -2.0036    1.6977    2.0930
        4 C1     2px        0.0657   -0.1469    0.0161   -0.0442    0.0176   -0.0213
        5 C1     *px        0.4324   -0.7561    0.4628   -1.4971    1.8224    1.0780
        6 C1     2py        0.0108   -0.1362    0.1849    0.0745    0.1061   -0.0842
        7 C1     *py        0.3590   -1.0114    0.6519    1.1286   -0.2796   -2.3612
        8 C1     2pz        0.0003   -0.0034    0.0045    0.0018    0.0026   -0.0020
        9 C1     *pz        0.0089   -0.0248    0.0160    0.0261   -0.0055   -0.0560
       10 C1     *200       0.0026    0.0043    0.0120   -0.0034   -0.0071    0.0186
       11 C1     *110      -0.0082    0.0002   -0.0016   -0.0166    0.0150    0.0192
       12 C1     *101      -0.0002    0.0000   -0.0000   -0.0004    0.0004    0.0005
       13 C1     *020      -0.0001   -0.0029   -0.0128   -0.0016    0.0190   -0.0068
       14 C1     *011      -0.0001   -0.0001   -0.0005   -0.0003    0.0013   -0.0001
       15 C1     *002       0.0024   -0.0015   -0.0015    0.0046   -0.0069   -0.0052
       16 C2     1s        -0.0873    0.0340   -0.0316   -0.0523    0.0935   -0.0148
       17 C2     2s         0.1211    0.0006    0.0537    0.0469   -0.0099    0.0483
       18 C2     *s         1.2577   -1.1725    0.3778    2.2073   -3.3111   -0.5725
       19 C2     2px        0.0193    0.0685    0.1577   -0.0451   -0.0802    0.2768
       20 C2     *px       -0.1947    0.5950    0.6556   -1.1233   -1.1031    3.2911
       21 C2     2py       -0.0928    0.1152    0.0045    0.1495   -0.1604   -0.0110
       22 C2     *py       -0.9201    0.5425   -0.4517    1.1166   -2.2832   -1.0722
       23 C2     2pz       -0.0022    0.0028    0.0002    0.0036   -0.0039   -0.0001
       24 C2     *pz       -0.0223    0.0135   -0.0104    0.0261   -0.0556   -0.0235
       25 C2     *200      -0.0084    0.0053   -0.0145    0.0063   -0.0056   -0.0150
       26 C2     *110       0.0009   -0.0025   -0.0047    0.0172    0.0199    0.0033
       27 C2     *101       0.0000   -0.0001   -0.0001    0.0004    0.0005    0.0000
       28 C2     *020       0.0044   -0.0080    0.0095    0.0027   -0.0072    0.0035
       29 C2     *011       0.0002   -0.0006    0.0003    0.0002   -0.0006   -0.0002
       30 C2     *002      -0.0000    0.0040    0.0037   -0.0019    0.0046    0.0074
       31 H3     1s         0.0125    0.0172    0.0522   -0.0758   -0.0161    0.1733
       32 H3     *s         0.9733   -1.4335    0.2118   -0.3851    0.7660   -0.1503
       33 H4     1s         0.0038   -0.0196   -0.0704   -0.0178    0.1439    0.0577
       34 H4     *s         0.1157    0.8642   -1.6751   -0.1092   -0.6176    1.5344
       35 C5     1s         0.0873    0.0340    0.0316   -0.0523   -0.0935    0.0148
       36 C5     2s        -0.1211    0.0006   -0.0537    0.0469    0.0099   -0.0483
       37 C5     *s        -1.2577   -1.1725   -0.3778    2.2074    3.3110    0.5724
       38 C5     2px       -0.0202   -0.1094    0.1459   -0.0196   -0.1386    0.2483
       39 C5     *px       -0.5525   -0.7644    0.4150    0.5715   -1.9371    2.5698
       40 C5     2py        0.0926    0.0774    0.0600    0.1549    0.1139    0.1226
       41 C5     *py        0.7613    0.2535    0.6793    1.4769    1.6368    2.3183
       42 C5     2pz        0.0022    0.0018    0.0015    0.0037    0.0026    0.0031
       43 C5     *pz        0.0179    0.0056    0.0166    0.0359    0.0380    0.0575
       44 C5     *200       0.0059    0.0022    0.0123    0.0121   -0.0015    0.0108
       45 C5     *110       0.0101    0.0116    0.0147   -0.0089    0.0121    0.0159
       46 C5     *101       0.0003    0.0003    0.0004   -0.0002    0.0003    0.0004
       47 C5     *020      -0.0019   -0.0049   -0.0073   -0.0030    0.0144    0.0008
       48 C5     *011      -0.0001   -0.0004   -0.0002   -0.0001    0.0009    0.0004
       49 C5     *002       0.0000    0.0040   -0.0037   -0.0019   -0.0046   -0.0074
       50 H6     1s        -0.0117   -0.0396    0.0397    0.0516    0.0021    0.0122
       51 H6     *s        -1.5553    1.0631   -0.2058    0.3863   -1.1694    0.0079
       52 C7     1s        -0.0616   -0.0292    0.0560    0.0587    0.0419    0.0164
       53 C7     2s         0.0716    0.0266   -0.0370   -0.0037    0.0218    0.0559
       54 C7     *s         0.7788    0.7236   -1.4881   -2.0035   -1.6977   -2.0929
       55 C7     2px        0.0644    0.1897    0.0900    0.0101    0.0593   -0.0537
       56 C7     *px        0.5412    1.1024    0.6881    0.9081    1.5507    0.0233
       57 C7     2py        0.0169   -0.0647   -0.1623    0.0861   -0.0898    0.0683
       58 C7     *py       -0.1520   -0.6162   -0.4072    1.6401    0.9968    2.5953
       59 C7     2pz        0.0004   -0.0014   -0.0038    0.0021   -0.0021    0.0016
       60 C7     *pz       -0.0033   -0.0140   -0.0093    0.0400    0.0250    0.0624
       61 C7     *200       0.0009    0.0031   -0.0073   -0.0093   -0.0028   -0.0215
       62 C7     *110      -0.0075    0.0052   -0.0195    0.0098    0.0295   -0.0060
       63 C7     *101      -0.0002    0.0001   -0.0005    0.0002    0.0007   -0.0002
       64 C7     *020      -0.0034   -0.0018    0.0082    0.0043   -0.0091    0.0097
       65 C7     *011      -0.0001   -0.0000    0.0003   -0.0000   -0.0007    0.0002
       66 C7     *002      -0.0024   -0.0015    0.0015    0.0046    0.0069    0.0052
       67 H8     1s         0.0117   -0.0396   -0.0397    0.0516   -0.0021   -0.0122
       68 H8     *s         1.5554    1.0631    0.2058    0.3863    1.1694   -0.0079
       69 H9     1s        -0.0038   -0.0196    0.0704   -0.0178   -0.1439   -0.0577
       70 H9     *s        -0.1156    0.8643    1.6751   -0.1092    0.6176   -1.5345
       71 H10    1s        -0.0125    0.0172   -0.0522   -0.0758    0.0161   -0.1733
       72 H10    *s        -0.9733   -1.4334   -0.2117   -0.3851   -0.7659    0.1503
--


++    Molecular charges:
      ------------------

      Mulliken charges per centre and basis function type
      ---------------------------------------------------

                C1      C2      H3      H4      C5      H6      C7      H8      H9      H10   
      1s       1.9965  1.9966  0.5235  0.5257  1.9966  0.5272  1.9965  0.5272  0.5257  0.5235
      2s       0.6589  0.6678  0.0000  0.0000  0.6678  0.0000  0.6589  0.0000  0.0000  0.0000
      2px      0.7326  0.7246  0.0000  0.0000  0.7068  0.0000  0.7166  0.0000  0.0000  0.0000
      2pz      0.5127  0.5132  0.0000  0.0000  0.5132  0.0000  0.5127  0.0000  0.0000  0.0000
      2py      0.7298  0.7331  0.0000  0.0000  0.7509  0.0000  0.7458  0.0000  0.0000  0.0000
      *s       0.5874  0.5033  0.2963  0.2958  0.5033  0.2845  0.5874  0.2845  0.2958  0.2963
      *px      0.3118  0.1850  0.0000  0.0000  0.2397  0.0000  0.3611  0.0000  0.0000  0.0000
      *pz      0.4903  0.4657  0.0000  0.0000  0.4656  0.0000  0.4902  0.0000  0.0000  0.0000
      *py      0.3091  0.3077  0.0000  0.0000  0.2531  0.0000  0.2598  0.0000  0.0000  0.0000
      *200     0.0305  0.0238  0.0000  0.0000  0.0231  0.0000  0.0319  0.0000  0.0000  0.0000
      *110     0.0109  0.0127  0.0000  0.0000  0.0182  0.0000  0.0138  0.0000  0.0000  0.0000
      *101     0.0039  0.0073  0.0000  0.0000  0.0043  0.0000  0.0011  0.0000  0.0000  0.0000
      *020     0.0321  0.0313  0.0000  0.0000  0.0266  0.0000  0.0278  0.0000  0.0000  0.0000
      *011     0.0035  0.0035  0.0000  0.0000  0.0065  0.0000  0.0064  0.0000  0.0000  0.0000
      *002    -0.0202 -0.0186  0.0000  0.0000 -0.0186  0.0000 -0.0202  0.0000  0.0000  0.0000
      Total    6.3899  6.1571  0.8198  0.8215  6.1571  0.8117  6.3899  0.8117  0.8215  0.8198

      N-E     -0.3899 -0.1571  0.1802  0.1785 -0.1571  0.1883 -0.3899  0.1883  0.1785  0.1802

      Total electronic charge=   30.000000

      Total            charge=   -0.000000
--


++    Molecular properties:
      ---------------------

      Charge (e):
                      =   -0.0000
      Dipole Moment (Debye):
      Origin of the operator (Ang)=    0.0000    0.0000    0.0000
                   X=  1.6796E-02               Y= -7.8881E-02               Z= -1.8840E-03           Total=  8.0671E-02
      Quadrupole Moment (Debye*Ang):
      Origin of the operator (Ang)=   -1.2198    1.5207   -0.0018
                  XX= -2.3005E+01              XY= -1.4011E-01              XZ=  6.5104E-04              YY= -2.2380E+01
                  YZ=  1.5409E-01              ZZ= -2.8791E+01
      In traceless form (Debye*Ang)
                  XX=  2.5805E+00              XY= -2.1017E-01              XZ=  9.7657E-04              YY=  3.5179E+00
                  YZ=  2.3113E-01              ZZ= -6.0984E+00
--


      Input file to MOLDEN was generated!

 ###############################################################################
 ###############################################################################
 ###                                                                         ###
 ###                                                                         ###
 ###    WARNING: RunFile label nBas                                          ###
 ###    was used       60 times                                              ###
 ###                                                                         ###
 ###                                                                         ###
 ###############################################################################
 ###############################################################################
--- Stop Module: scf at Tue May 14 15:17:05 2024 /rc=_RC_ALL_IS_WELL_ ---
*** files: cis-1,3-butadiene.scf.molden cis-1,3-butadiene.ScfOrb xmldump
    saved to directory /home/kenya/molcas_test/0514
--- Module scf spent 2 seconds ---

*** symbolic link created: INPORB -> cis-1,3-butadiene.ScfOrb
--- Start Module: slapaf at Tue May 14 15:17:05 2024 ---

()()()()()()()()()()()()()()()()()()()()()()()()()()()()()()()()()()()()()()()()()()()()()()()()()()

                                              &SLAPAF

                                   only a single process is used
                       available to each process: 2.0 GB of memory, 1 thread
                                             pid: 44481
()()()()()()()()()()()()()()()()()()()()()()()()()()()()()()()()()()()()()()()()()()()()()()()()()()

--- Stop Module: slapaf at Tue May 14 15:17:05 2024 /rc=_RC_INVOKED_OTHER_MODULE_ ---
*** files: xmldump
    saved to directory /home/kenya/molcas_test/0514

*** symbolic link created: INPORB -> cis-1,3-butadiene.ScfOrb
--- Start Module: alaska at Tue May 14 15:17:05 2024 ---

()()()()()()()()()()()()()()()()()()()()()()()()()()()()()()()()()()()()()()()()()()()()()()()()()()

                                              &ALASKA

                                   only a single process is used
                       available to each process: 2.0 GB of memory, 1 thread
                                             pid: 44484
()()()()()()()()()()()()()()()()()()()()()()()()()()()()()()()()()()()()()()()()()()()()()()()()()()


                     Threshold for contributions to the gradient: 1.000E-07


                    ********************************************
                    * Symmetry Adapted Cartesian Displacements *
                    ********************************************


           Irreducible representation : a  
           Basis function(s) of irrep: x, y, xy, Rz, z, xz, Ry, yz, Rx, I                                              

 Basis Label        Type   Center Phase
   1   C1           x         1     1
   2   C1           y         1     1
   3   C1           z         1     1
   4   C2           x         2     1
   5   C2           y         2     1
   6   C2           z         2     1
   7   H3           x         3     1
   8   H3           y         3     1
   9   H3           z         3     1
  10   H4           x         4     1
  11   H4           y         4     1
  12   H4           z         4     1
  13   C5           x         5     1
  14   C5           y         5     1
  15   C5           z         5     1
  16   H6           x         6     1
  17   H6           y         6     1
  18   H6           z         6     1
  19   C7           x         7     1
  20   C7           y         7     1
  21   C7           z         7     1
  22   H8           x         8     1
  23   H8           y         8     1
  24   H8           z         8     1
  25   H9           x         9     1
  26   H9           y         9     1
  27   H9           z         9     1
  28   H10          x        10     1
  29   H10          y        10     1
  30   H10          z        10     1

                     No automatic utilization of translational and rotational invariance of the energy is employed.

 Conventional ERI gradients!

 **************************************************
 *                                                *
 *              Molecular gradients               *
 *                                                *
 **************************************************

  Irreducible representation: a  
 ------------------------------------------------------------------------------------------
                              X                       Y                       Z
 ------------------------------------------------------------------------------------------
  C1               -7.08150446443767E-03    1.69110571030524E-02    4.01480358028394E-04
  C2                1.16572859991452E-02   -1.27508832573424E-02   -2.98216895557535E-04
  H3               -6.64060925538079E-03   -5.25749480269100E-03   -1.31054293063187E-04
  H4                2.89760024859743E-03    6.42983083589677E-03    1.56649941032830E-04
  C5               -5.45313264210012E-03   -1.64033998119946E-02   -3.97928299298994E-04
  H6               -3.86676836528210E-03   -5.97555590444365E-03   -1.46325754861759E-04
  C7               -4.24142042757758E-04    1.83356790682030E-02    4.40107431210396E-04
  H8                5.96215390710553E-03   -3.88230439114601E-03   -8.92563764791840E-05
  H9               -5.26218908011877E-03    4.69366641281299E-03    1.09200448086988E-04
  H10               8.21130569512851E-03   -2.10059525228889E-03   -4.46565590946010E-05
 ------------------------------------------------------------------------------------------

--- Stop Module: alaska at Tue May 14 15:17:07 2024 /rc=_RC_ALL_IS_WELL_ ---
*** files: xmldump
    saved to directory /home/kenya/molcas_test/0514
--- Module alaska spent 1 second ---

*** symbolic link created: INPORB -> cis-1,3-butadiene.ScfOrb
--- Start Module: slapaf at Tue May 14 15:17:07 2024 ---

()()()()()()()()()()()()()()()()()()()()()()()()()()()()()()()()()()()()()()()()()()()()()()()()()()

                                              &SLAPAF

                                   only a single process is used
                       available to each process: 2.0 GB of memory, 1 thread
                                             pid: 44515
()()()()()()()()()()()()()()()()()()()()()()()()()()()()()()()()()()()()()()()()()()()()()()()()()()



++       Slapaf input parameters:
         ------------------------

 Maximum number of iterations:              2000
 Convergence test a la Schlegel.
 Convergence criterion on gradient/para.<=: 3.0E-04
 Convergence criterion on step/parameter<=: 3.0E-04
 Convergence criterion on energy change <=: 0.0E+00
 Parameters for step-restricted optimization
 Maximum step length (initial seed):       3.00E-01

 -RFO activated with parameters:
   Maximum number of data points used in RFO:      5
 Line search is performed


 -Optimization for minimum.
  Optimization method: RS-RFO.

 -Initial Hessian guessed by Hessian Model Function (HMF).
  HMF augmented with weak interactions.

 -Hessian update method: Broyden-Fletcher-Goldfarb-Shanno
  Maximum number of points in Hessian update:  5

 -Relaxation will be done on non-redundant internal coordinates, based on
  force constant weighted redundant internal coordinates.

--

 ******************************************
 * Statistics of the internal coordinates *
 ******************************************
 Translations and Rotations:         0
 Bonds                     :         9
 Angles                    :        12
 Torsions                  :        12
 Out-of-plane angles       :         6


**********************************************************************************************************************
*                                    Energy Statistics for Geometry Optimization                                     *
**********************************************************************************************************************
                       Energy     Grad      Grad              Step                 Estimated   Geom       Hessian     
Iter      Energy       Change     Norm      Max    Element    Max     Element     Final Energy Update Update   Index  
  1   -154.91163594  0.00000000 0.040185 -0.027854 nrc009  -0.055355  nrc009     -154.91310926 RS-RFO  None      0    

       +----------------------------------+----------------------------------+
       +    Cartesian Displacements       +    Gradient in internals         +
       +  Value      Threshold Converged? +  Value      Threshold Converged? +
 +-----+----------------------------------+----------------------------------+
 + RMS + 7.1303E-02  1.2000E-03     No    + 1.0740E-02  3.0000E-04     No    +
 +-----+----------------------------------+----------------------------------+
 + Max + 1.1555E-01  1.8000E-03     No    + 2.7854E-02  4.5000E-04     No    +
 +-----+----------------------------------+----------------------------------+

 Convergence not reached yet!

*****************************************************************************************************************
*****************************************************************************************************************

++ Geometry section

********************************************************************************
  Geometrical information of the new structure
********************************************************************************


 *********************************************************
 * Nuclear coordinates for the next iteration / Bohr     *
 *********************************************************
  ATOM              X               Y               Z     
  C1              -5.342582        3.231596        0.003058
  C2              -3.460293        1.579176       -0.035370
  H3              -7.277310        2.599333       -0.013480
  H4              -5.052108        5.243439        0.051628
  C5              -0.722872        2.161186       -0.019480
  H6              -3.928410       -0.406763       -0.083440
  C7               0.323815        4.436349        0.035919
  H8               0.513178        0.537577       -0.057636
  H9              -0.760516        6.155890        0.076483
  H10              2.348478        4.645906        0.042356


 *********************************************************
 * Nuclear coordinates for the next iteration / Angstrom *
 *********************************************************
  ATOM              X               Y               Z     
  C1              -2.827173        1.710087        0.001618
  C2              -1.831108        0.835664       -0.018717
  H3              -3.850986        1.375508       -0.007133
  H4              -2.673460        2.774708        0.027320
  C5              -0.382528        1.143650       -0.010308
  H6              -2.078825       -0.215249       -0.044154
  C7               0.171356        2.347615        0.019007
  H8               0.271562        0.284473       -0.030500
  H9              -0.402448        3.257557        0.040473
  H10              1.242761        2.458508        0.022414


                    *************************************** 
                    *    InterNuclear Distances / Bohr    * 
                    *************************************** 

               1 C1            2 C2            3 H3            4 H4            5 C5    
    1 C1       0.000000
    2 C2       2.504992        0.000000
    3 H3       2.035485        3.951053        0.000000
    4 H4       2.033284        3.996031        3.456452        0.000000
    5 C5       4.742152        2.798653        6.569068        5.314849        0.000000
    6 H6       3.904487        2.040930        4.500737        5.762440        4.107788
    7 C7       5.793149        4.742151        7.820113        5.436192        2.504994
    8 H8       6.446033        4.107784        8.058814        7.288997        2.040926
    9 H9       5.436195        5.314849        7.424674        4.387590        3.996034
   10 H10      7.820117        6.569071        9.841106        7.424675        3.951057

               6 H6            7 C7            8 H8            9 H9           10 H10   
    6 H6       0.000000
    7 C7       6.446038        0.000000
    8 H8       4.540941        3.904489        0.000000
    9 H9       7.289001        2.033283        5.762441        0.000000
   10 H10      8.058822        2.035489        4.500744        3.456452        0.000000

                    ******************************************* 
                    *    InterNuclear Distances / Angstrom    * 
                    ******************************************* 

               1 C1            2 C2            3 H3            4 H4            5 C5    
    1 C1       0.000000
    2 C2       1.325585        0.000000
    3 H3       1.077132        2.090807        0.000000
    4 H4       1.075968        2.114609        1.829075        0.000000
    5 C5       2.509439        1.480983        3.476201        2.812497        0.000000
    6 H6       2.066165        1.080014        2.381687        3.049352        2.173748
    7 C7       3.065602        2.509438        4.138226        2.876709        1.325586
    8 H8       3.411094        2.173746        4.264541        3.857171        1.080012
    9 H9       2.876711        2.812497        3.928968        2.321812        2.114610
   10 H10      4.138228        3.476203        5.207689        3.928969        2.090809

               6 H6            7 C7            8 H8            9 H9           10 H10   
    6 H6       0.000000
    7 C7       3.411096        0.000000
    8 H8       2.402963        2.066167        0.000000
    9 H9       3.857173        1.075967        3.049352        0.000000
   10 H10      4.264545        1.077134        2.381691        1.829076        0.000000

                    ************************************** 
                    *    Valence Bond Angles / Degree    * 
                    ************************************** 
                          Atom centers                 Phi
                      2 C2       1 C1       3 H3       120.61
                      2 C2       1 C1       4 H4       123.07
                      3 H3       1 C1       4 H4       116.32
                      1 C1       2 C2       5 C5       126.71
                      1 C1       2 C2       6 H6       118.03
                      5 C5       2 C2       6 H6       115.27
                      2 C2       5 C5       7 C7       126.71
                      2 C2       5 C5       8 H8       115.27
                      7 C7       5 C5       8 H8       118.03
                      5 C5       7 C7       9 H9       123.07
                      5 C5       7 C7      10 H10      120.61
                      9 H9       7 C7      10 H10      116.32

           ***************************************************************
           *              Valence Dihedral Angles / Degree               *
           ***************************************************************
                    Atom centers                       Phi1     Phi2     Theta 
           3 H3       1 C1       2 C2       5 C5        120.61   126.71  -180.00
           3 H3       1 C1       2 C2       6 H6        120.61   118.03    -0.00
           4 H4       1 C1       2 C2       5 C5        123.07   126.71     0.00
           4 H4       1 C1       2 C2       6 H6        123.07   118.03   180.00
           1 C1       2 C2       5 C5       7 C7        126.71   126.71    -0.00
           1 C1       2 C2       5 C5       8 H8        126.71   115.27   180.00
           6 H6       2 C2       5 C5       7 C7        115.27   126.71   180.00
           6 H6       2 C2       5 C5       8 H8        115.27   115.27    -0.00
           2 C2       5 C5       7 C7       9 H9        126.71   123.07     0.00
           2 C2       5 C5       7 C7      10 H10       126.71   120.61  -180.00
           8 H8       5 C5       7 C7       9 H9        118.03   123.07   180.00
           8 H8       5 C5       7 C7      10 H10       118.03   120.61     0.00
--
--- Stop Module: slapaf at Tue May 14 15:17:07 2024 /rc=_RC_CONTINUE_LOOP_ ---
*** files: cis-1,3-butadiene.geo.molden cis-1,3-butadiene.structure cis-1,3-butadiene.Opt.xyz xmldump
    saved to directory /home/kenya/molcas_test/0514

>>> END DO

*** symbolic link created: INPORB -> cis-1,3-butadiene.ScfOrb
--- Start Module: seward at Tue May 14 15:17:07 2024 ---
--- Stop Module: seward at Tue May 14 15:17:09 2024 /rc=_RC_ALL_IS_WELL_ ---
*** files: xmldump
    saved to directory /home/kenya/molcas_test/0514
--- Module seward spent 1 second ---

*** symbolic link created: INPORB -> cis-1,3-butadiene.ScfOrb
--- Start Module: scf at Tue May 14 15:17:09 2024 ---
--- Stop Module: scf at Tue May 14 15:17:10 2024 /rc=_RC_ALL_IS_WELL_ ---
*** files: cis-1,3-butadiene.scf.molden cis-1,3-butadiene.ScfOrb xmldump
    saved to directory /home/kenya/molcas_test/0514
--- Module scf spent 1 second ---

*** symbolic link created: INPORB -> cis-1,3-butadiene.ScfOrb
--- Start Module: slapaf at Tue May 14 15:17:10 2024 ---
--- Stop Module: slapaf at Tue May 14 15:17:10 2024 /rc=_RC_INVOKED_OTHER_MODULE_ ---
*** files: xmldump
    saved to directory /home/kenya/molcas_test/0514

*** symbolic link created: INPORB -> cis-1,3-butadiene.ScfOrb
--- Start Module: alaska at Tue May 14 15:17:10 2024 ---
--- Stop Module: alaska at Tue May 14 15:17:12 2024 /rc=_RC_ALL_IS_WELL_ ---
*** files: xmldump
    saved to directory /home/kenya/molcas_test/0514
--- Module alaska spent 1 second ---

*** symbolic link created: INPORB -> cis-1,3-butadiene.ScfOrb
--- Start Module: slapaf at Tue May 14 15:17:12 2024 ---

**********************************************************************************************************************
*                                    Energy Statistics for Geometry Optimization                                     *
**********************************************************************************************************************
                       Energy     Grad      Grad              Step                 Estimated   Geom       Hessian     
Iter      Energy       Change     Norm      Max    Element    Max     Element     Final Energy Update Update   Index  
  1   -154.91163594  0.00000000 0.040185 -0.027854 nrc009  -0.055355  nrc009     -154.91310926 RS-RFO  None      0    
  2   -154.91338428 -0.00174833 0.008364 -0.005311 nrc009  -0.011671  nrc009     -154.91345931 RS-RFO  BFGS      0    

       +----------------------------------+----------------------------------+
       +    Cartesian Displacements       +    Gradient in internals         +
       +  Value      Threshold Converged? +  Value      Threshold Converged? +
 +-----+----------------------------------+----------------------------------+
 + RMS + 1.4208E-02  1.2000E-03     No    + 2.6450E-03  3.0000E-04     No    +
 +-----+----------------------------------+----------------------------------+
 + Max + 1.9434E-02  1.8000E-03     No    + 5.3106E-03  4.5000E-04     No    +
 +-----+----------------------------------+----------------------------------+

 Convergence not reached yet!

*****************************************************************************************************************
*****************************************************************************************************************

++ Geometry section

********************************************************************************
  Geometrical information of the new structure
********************************************************************************


 *********************************************************
 * Nuclear coordinates for the next iteration / Bohr     *
 *********************************************************
  ATOM              X               Y               Z     
  C1              -5.350575        3.224313        0.002879
  C2              -3.461344        1.589981       -0.035105
  H3              -7.280140        2.589626       -0.013722
  H4              -5.067578        5.236005        0.051445
  C5              -0.726312        2.171485       -0.019240
  H6              -3.912520       -0.395578       -0.083155
  C7               0.334082        4.432947        0.035836
  H8               0.494114        0.541330       -0.057565
  H9              -0.743360        6.155392        0.076476
  H10              2.355013        4.638188        0.042189


 *********************************************************
 * Nuclear coordinates for the next iteration / Angstrom *
 *********************************************************
  ATOM              X               Y               Z     
  C1              -2.831402        1.706233        0.001524
  C2              -1.831664        0.841382       -0.018577
  H3              -3.852484        1.370371       -0.007262
  H4              -2.681647        2.770775        0.027224
  C5              -0.384348        1.149100       -0.010181
  H6              -2.070417       -0.209331       -0.044004
  C7               0.176788        2.345815        0.018964
  H8               0.261474        0.286459       -0.030462
  H9              -0.393369        3.257293        0.040469
  H10              1.246219        2.454423        0.022325

--
--- Stop Module: slapaf at Tue May 14 15:17:12 2024 /rc=_RC_CONTINUE_LOOP_ ---
*** files: cis-1,3-butadiene.geo.molden cis-1,3-butadiene.structure cis-1,3-butadiene.Opt.xyz xmldump
    saved to directory /home/kenya/molcas_test/0514

>>> END DO

*** symbolic link created: INPORB -> cis-1,3-butadiene.ScfOrb
--- Start Module: seward at Tue May 14 15:17:12 2024 ---
--- Stop Module: seward at Tue May 14 15:17:13 2024 /rc=_RC_ALL_IS_WELL_ ---
*** files: xmldump
    saved to directory /home/kenya/molcas_test/0514
--- Module seward spent 1 second ---

*** symbolic link created: INPORB -> cis-1,3-butadiene.ScfOrb
--- Start Module: scf at Tue May 14 15:17:13 2024 ---
--- Stop Module: scf at Tue May 14 15:17:14 2024 /rc=_RC_ALL_IS_WELL_ ---
*** files: cis-1,3-butadiene.scf.molden cis-1,3-butadiene.ScfOrb xmldump
    saved to directory /home/kenya/molcas_test/0514
--- Module scf spent 1 second ---

*** symbolic link created: INPORB -> cis-1,3-butadiene.ScfOrb
--- Start Module: slapaf at Tue May 14 15:17:14 2024 ---
--- Stop Module: slapaf at Tue May 14 15:17:14 2024 /rc=_RC_INVOKED_OTHER_MODULE_ ---
*** files: xmldump
    saved to directory /home/kenya/molcas_test/0514

*** symbolic link created: INPORB -> cis-1,3-butadiene.ScfOrb
--- Start Module: alaska at Tue May 14 15:17:14 2024 ---
--- Stop Module: alaska at Tue May 14 15:17:16 2024 /rc=_RC_ALL_IS_WELL_ ---
*** files: xmldump
    saved to directory /home/kenya/molcas_test/0514
--- Module alaska spent 1 second ---

*** symbolic link created: INPORB -> cis-1,3-butadiene.ScfOrb
--- Start Module: slapaf at Tue May 14 15:17:16 2024 ---

**********************************************************************************************************************
*                                    Energy Statistics for Geometry Optimization                                     *
**********************************************************************************************************************
                       Energy     Grad      Grad              Step                 Estimated   Geom       Hessian     
Iter      Energy       Change     Norm      Max    Element    Max     Element     Final Energy Update Update   Index  
  1   -154.91163594  0.00000000 0.040185 -0.027854 nrc009  -0.055355  nrc009     -154.91310926 RS-RFO  None      0    
  2   -154.91338428 -0.00174833 0.008364 -0.005311 nrc009  -0.011671  nrc009     -154.91345931 RS-RFO  BFGS      0    
  3   -154.91346089 -0.00007661 0.001064 -0.000396 nrc001  -0.002045  nrc012     -154.91346168 RS-RFO  BFGS      0    

       +----------------------------------+----------------------------------+
       +    Cartesian Displacements       +    Gradient in internals         +
       +  Value      Threshold Converged? +  Value      Threshold Converged? +
 +-----+----------------------------------+----------------------------------+
 + RMS + 9.1296E-04  1.2000E-03     Yes   + 3.5455E-04  3.0000E-04     No    +
 +-----+----------------------------------+----------------------------------+
 + Max + 1.2740E-03  1.8000E-03     Yes   + 3.9602E-04  4.5000E-04     Yes   +
 +-----+----------------------------------+----------------------------------+

 Convergence not reached yet!

*****************************************************************************************************************
*****************************************************************************************************************

++ Geometry section

********************************************************************************
  Geometrical information of the new structure
********************************************************************************


 *********************************************************
 * Nuclear coordinates for the next iteration / Bohr     *
 *********************************************************
  ATOM              X               Y               Z     
  C1              -5.351784        3.223912        0.002865
  C2              -3.461467        1.590401       -0.035107
  H3              -7.281161        2.589151       -0.013723
  H4              -5.067220        5.235657        0.051433
  C5              -0.726370        2.171919       -0.019217
  H6              -3.911781       -0.395041       -0.083159
  C7               0.335349        4.433072        0.035857
  H8               0.493221        0.541520       -0.057541
  H9              -0.743545        6.154928        0.076473
  H10              2.356138        4.638170        0.042158


 *********************************************************
 * Nuclear coordinates for the next iteration / Angstrom *
 *********************************************************
  ATOM              X               Y               Z     
  C1              -2.832042        1.706021        0.001516
  C2              -1.831729        0.841604       -0.018578
  H3              -3.853025        1.370120       -0.007262
  H4              -2.681457        2.770590        0.027217
  C5              -0.384379        1.149330       -0.010169
  H6              -2.070026       -0.209047       -0.044006
  C7               0.177459        2.345881        0.018974
  H8               0.261001        0.286560       -0.030449
  H9              -0.393467        3.257048        0.040468
  H10              1.246815        2.454414        0.022309

--
--- Stop Module: slapaf at Tue May 14 15:17:16 2024 /rc=_RC_CONTINUE_LOOP_ ---
*** files: cis-1,3-butadiene.geo.molden cis-1,3-butadiene.structure cis-1,3-butadiene.Opt.xyz xmldump
    saved to directory /home/kenya/molcas_test/0514

>>> END DO

*** symbolic link created: INPORB -> cis-1,3-butadiene.ScfOrb
--- Start Module: seward at Tue May 14 15:17:16 2024 ---
--- Stop Module: seward at Tue May 14 15:17:18 2024 /rc=_RC_ALL_IS_WELL_ ---
*** files: xmldump
    saved to directory /home/kenya/molcas_test/0514
--- Module seward spent 1 second ---

*** symbolic link created: INPORB -> cis-1,3-butadiene.ScfOrb
--- Start Module: scf at Tue May 14 15:17:18 2024 ---
--- Stop Module: scf at Tue May 14 15:17:19 2024 /rc=_RC_ALL_IS_WELL_ ---
*** files: cis-1,3-butadiene.scf.molden cis-1,3-butadiene.ScfOrb xmldump
    saved to directory /home/kenya/molcas_test/0514
--- Module scf spent 1 second ---

*** symbolic link created: INPORB -> cis-1,3-butadiene.ScfOrb
--- Start Module: slapaf at Tue May 14 15:17:20 2024 ---
--- Stop Module: slapaf at Tue May 14 15:17:20 2024 /rc=_RC_INVOKED_OTHER_MODULE_ ---
*** files: xmldump
    saved to directory /home/kenya/molcas_test/0514

*** symbolic link created: INPORB -> cis-1,3-butadiene.ScfOrb
--- Start Module: alaska at Tue May 14 15:17:20 2024 ---
--- Stop Module: alaska at Tue May 14 15:17:22 2024 /rc=_RC_ALL_IS_WELL_ ---
*** files: xmldump
    saved to directory /home/kenya/molcas_test/0514
--- Module alaska spent 1 second ---

*** symbolic link created: INPORB -> cis-1,3-butadiene.ScfOrb
--- Start Module: slapaf at Tue May 14 15:17:22 2024 ---

**********************************************************************************************************************
*                                    Energy Statistics for Geometry Optimization                                     *
**********************************************************************************************************************
                       Energy     Grad      Grad              Step                 Estimated   Geom       Hessian     
Iter      Energy       Change     Norm      Max    Element    Max     Element     Final Energy Update Update   Index  
  1   -154.91163594  0.00000000 0.040185 -0.027854 nrc009  -0.055355  nrc009     -154.91310926 RS-RFO  None      0    
  2   -154.91338428 -0.00174833 0.008364 -0.005311 nrc009  -0.011671  nrc009     -154.91345931 RS-RFO  BFGS      0    
  3   -154.91346089 -0.00007661 0.001064 -0.000396 nrc001  -0.002045  nrc012     -154.91346168 RS-RFO  BFGS      0    
[...]
       72 H10    *s         0.0003    0.0001    0.0014    0.0016    0.0058    0.0193    0.0398    0.0460    0.0833    0.0369

          Orbital           11        12        13        14        15        16        17        18        19        20    
          Energy           -0.5831   -0.5146   -0.4914   -0.4363   -0.3214    0.1235    0.2467    0.2622    0.2780    0.3047
          Occ. No.          2.0000    2.0000    2.0000    2.0000    2.0000    0.0000    0.0000    0.0000    0.0000    0.0000

        1 C1     1s        -0.0105   -0.0166   -0.0036   -0.0000    0.0000   -0.0000    0.0543    0.0673   -0.0000    0.0498
        2 C1     2s         0.0214    0.0348    0.0068    0.0000   -0.0000    0.0000   -0.0748   -0.0711    0.0000   -0.0264
        3 C1     *s         0.0198    0.0249    0.0041   -0.0000   -0.0000   -0.0000   -0.7494   -1.1371    0.0001   -1.2378
        4 C1     2px        0.2953    0.0177    0.1792   -0.0002    0.0002   -0.0002    0.0875   -0.0167    0.0001    0.1951
        5 C1     *px        0.1346   -0.0170    0.1115   -0.0001    0.0002   -0.0004    0.4153   -0.0322    0.0004    0.5952
        6 C1     2py        0.0841   -0.2592    0.1054   -0.0054    0.0074   -0.0066   -0.0051   -0.1585    0.0047    0.0577
        7 C1     *py        0.0558   -0.1398    0.0714   -0.0041    0.0063   -0.0123   -0.1876   -0.5624    0.0137    0.3050
        8 C1     2pz        0.0022   -0.0062    0.0027    0.2241   -0.3063    0.2743   -0.0001   -0.0038   -0.1933    0.0015
        9 C1     *pz        0.0014   -0.0034    0.0018    0.1689   -0.2635    0.5127   -0.0042   -0.0136   -0.5697    0.0077
       10 C1     *200      -0.0088    0.0088   -0.0135   -0.0000    0.0000    0.0000    0.0087   -0.0013   -0.0000    0.0025
       11 C1     *110      -0.0126   -0.0045   -0.0071   -0.0003    0.0003    0.0002    0.0081    0.0014   -0.0004    0.0033
       12 C1     *101      -0.0003   -0.0001   -0.0002    0.0142   -0.0122   -0.0104    0.0002    0.0000    0.0179    0.0001
       13 C1     *020       0.0054   -0.0125    0.0123    0.0003   -0.0003   -0.0002   -0.0049    0.0026    0.0005   -0.0017
       14 C1     *011       0.0002   -0.0006    0.0006   -0.0114    0.0121    0.0075   -0.0003   -0.0000   -0.0206   -0.0003
       15 C1     *002       0.0001   -0.0001   -0.0000   -0.0003    0.0003    0.0002    0.0008    0.0036   -0.0005    0.0036
       16 C2     1s        -0.0184    0.0127    0.0148    0.0000    0.0000    0.0000    0.0418   -0.0356   -0.0000    0.0191
       17 C2     2s         0.0408   -0.0233   -0.0342   -0.0000   -0.0000   -0.0000   -0.0416    0.0400    0.0000    0.0036
       18 C2     *s         0.0109   -0.0516   -0.0430   -0.0000   -0.0000   -0.0000   -0.8614    0.5004    0.0001   -0.6066
       19 C2     2px       -0.0425   -0.0700   -0.2584   -0.0002    0.0002    0.0001    0.0285   -0.0220   -0.0002    0.0462
       20 C2     *px       -0.0230    0.0008   -0.1233   -0.0001    0.0001    0.0003    0.1582   -0.1177   -0.0005   -0.3070
       21 C2     2py        0.1779    0.2336   -0.1494   -0.0071    0.0058    0.0052    0.1472   -0.0745   -0.0077    0.1325
       22 C2     *py        0.0519    0.1379   -0.0962   -0.0049    0.0052    0.0090    0.4279   -0.1545   -0.0189    0.5473
       23 C2     2pz        0.0043    0.0056   -0.0038    0.2938   -0.2394   -0.2168    0.0036   -0.0018    0.3195    0.0032
       24 C2     *pz        0.0012    0.0033   -0.0024    0.2043   -0.2155   -0.3736    0.0104   -0.0038    0.7828    0.0130
       25 C2     *200      -0.0024    0.0089   -0.0123    0.0000   -0.0000    0.0000   -0.0049    0.0057    0.0000   -0.0050
       26 C2     *110      -0.0147   -0.0158   -0.0051    0.0000   -0.0005    0.0006    0.0128    0.0028    0.0003   -0.0090
       27 C2     *101      -0.0004   -0.0004   -0.0001   -0.0018    0.0232   -0.0258    0.0003    0.0001   -0.0106   -0.0002
       28 C2     *020      -0.0016   -0.0139    0.0138   -0.0003    0.0002   -0.0003    0.0072   -0.0067    0.0003    0.0046
       29 C2     *011      -0.0001   -0.0007    0.0007    0.0125   -0.0104    0.0125    0.0003   -0.0002   -0.0141    0.0001
       30 C2     *002       0.0001    0.0010   -0.0000    0.0003   -0.0002    0.0003    0.0017   -0.0020   -0.0003    0.0022
       31 H3     1s        -0.1835    0.0647   -0.1479    0.0000   -0.0000   -0.0000    0.0412    0.0083   -0.0000    0.0085
       32 H3     *s        -0.1365    0.0440   -0.1254    0.0000   -0.0000   -0.0000    0.8803    0.2178   -0.0001    1.4088
       33 H4     1s         0.0831   -0.1570    0.1105   -0.0000    0.0000    0.0000   -0.0201    0.0184   -0.0000    0.0070
       34 H4     *s         0.0491   -0.1281    0.1025   -0.0000    0.0000    0.0000    0.3362    1.2639   -0.0001   -0.0186
       35 C5     1s         0.0184   -0.0127    0.0148   -0.0000   -0.0000   -0.0000    0.0418   -0.0356   -0.0000   -0.0191
       36 C5     2s        -0.0408    0.0233   -0.0342    0.0000    0.0000    0.0000   -0.0416    0.0400    0.0000   -0.0036
       37 C5     *s        -0.0109    0.0516   -0.0430    0.0000   -0.0000   -0.0000   -0.8614    0.5004    0.0000    0.6066
       38 C5     2px        0.0336    0.0311    0.2968   -0.0002   -0.0002    0.0001   -0.0859    0.0504    0.0002    0.0962
       39 C5     *px        0.0002    0.0569    0.1518   -0.0001   -0.0001    0.0003   -0.3188    0.1704    0.0005   -0.0577
       40 C5     2py       -0.1798   -0.2418   -0.0314   -0.0071   -0.0058    0.0052    0.1229   -0.0592    0.0077   -0.1022
       41 C5     *py       -0.0568   -0.1256   -0.0377   -0.0049   -0.0052    0.0090    0.3265   -0.0933    0.0188   -0.6248
       42 C5     2pz       -0.0043   -0.0058   -0.0006    0.2938    0.2394   -0.2168    0.0029   -0.0014   -0.3195   -0.0024
       43 C5     *pz       -0.0014   -0.0030   -0.0008    0.2043    0.2155   -0.3736    0.0076   -0.0021   -0.7828   -0.0151
       44 C5     *200       0.0077    0.0008   -0.0099    0.0000   -0.0000   -0.0000    0.0018    0.0047    0.0000    0.0067
       45 C5     *110      -0.0092   -0.0275   -0.0160    0.0001   -0.0004   -0.0005   -0.0175    0.0073    0.0004    0.0011
       46 C5     *101      -0.0002   -0.0007   -0.0004   -0.0034    0.0170    0.0184   -0.0004    0.0002   -0.0154    0.0000
       47 C5     *020      -0.0038    0.0043    0.0114   -0.0003   -0.0005   -0.0005    0.0004   -0.0057   -0.0002   -0.0064
       48 C5     *011      -0.0002    0.0002    0.0005    0.0121    0.0189    0.0219   -0.0001   -0.0002    0.0086   -0.0002
       49 C5     *002      -0.0001   -0.0010   -0.0000    0.0003    0.0005    0.0005    0.0017   -0.0020    0.0002   -0.0022
       50 H6     1s        -0.0841   -0.1694    0.1331    0.0000    0.0000    0.0000    0.0277   -0.0265   -0.0000    0.0015
       51 H6     *s        -0.0738   -0.1356    0.1192    0.0000    0.0000    0.0000    1.0167   -0.6380   -0.0001    0.8428
       52 C7     1s         0.0105    0.0166   -0.0036    0.0000    0.0000    0.0000    0.0543    0.0673   -0.0000   -0.0498
       53 C7     2s        -0.0214   -0.0348    0.0068   -0.0000   -0.0000   -0.0000   -0.0748   -0.0711    0.0000    0.0264
       54 C7     *s        -0.0198   -0.0249    0.0041   -0.0000   -0.0000   -0.0000   -0.7494   -1.1371    0.0001    1.2378
       55 C7     2px        0.3040   -0.0893   -0.2066   -0.0002   -0.0002   -0.0002   -0.0779    0.0798   -0.0001    0.2017
       56 C7     *px        0.1456   -0.0724   -0.1310   -0.0001   -0.0002   -0.0004   -0.3030    0.2584   -0.0004    0.6678
       57 C7     2py        0.0433    0.2440    0.0234   -0.0054   -0.0074   -0.0066   -0.0403   -0.1380   -0.0046    0.0267
       58 C7     *py        0.0038    0.1208    0.0199   -0.0041   -0.0063   -0.0123   -0.3403   -0.5006   -0.0137   -0.0365
       59 C7     2pz        0.0013    0.0058    0.0004    0.2241    0.3063    0.2743   -0.0010   -0.0033    0.1933    0.0008
       60 C7     *pz        0.0002    0.0028    0.0004    0.1689    0.2635    0.5127   -0.0084   -0.0118    0.5697   -0.0003
       61 C7     *200       0.0112   -0.0036   -0.0119    0.0000    0.0000   -0.0000    0.0094   -0.0001   -0.0000   -0.0031
       62 C7     *110       0.0021   -0.0189   -0.0145    0.0002    0.0002   -0.0002    0.0047   -0.0039   -0.0002   -0.0010
       63 C7     *101       0.0001   -0.0005   -0.0004   -0.0083   -0.0062    0.0064    0.0001   -0.0001    0.0079   -0.0000
       64 C7     *020      -0.0077    0.0073    0.0107    0.0004    0.0004   -0.0003   -0.0057    0.0015   -0.0006    0.0022
       65 C7     *011      -0.0004    0.0003    0.0005   -0.0162   -0.0160    0.0110   -0.0003   -0.0001    0.0261    0.0003
       66 C7     *002      -0.0001    0.0001   -0.0000   -0.0004   -0.0004    0.0003    0.0008    0.0036    0.0006   -0.0036
       67 H8     1s         0.0841    0.1694    0.1331    0.0000    0.0000    0.0000    0.0277   -0.0265    0.0000   -0.0015
       68 H8     *s         0.0738    0.1356    0.1192    0.0000    0.0000   -0.0000    1.0167   -0.6380   -0.0000   -0.8428
       69 H9     1s        -0.0831    0.1570    0.1105    0.0000    0.0000    0.0000   -0.0201    0.0184    0.0000   -0.0070
       70 H9     *s        -0.0491    0.1281    0.1025    0.0000    0.0000   -0.0000    0.3362    1.2639   -0.0001    0.0186
       71 H10    1s         0.1835   -0.0647   -0.1479   -0.0000   -0.0000    0.0000    0.0412    0.0083    0.0000   -0.0085
       72 H10    *s         0.1365   -0.0440   -0.1254   -0.0000   -0.0000    0.0000    0.8803    0.2178    0.0000   -1.4088

          Orbital           21        22        23        24        25        26    
          Energy            0.3494    0.3605    0.3633    0.4762    0.5086    0.6178
          Occ. No.          0.0000    0.0000    0.0000    0.0000    0.0000    0.0000

        1 C1     1s         0.0630   -0.0293   -0.0499    0.0600   -0.0420   -0.0157
        2 C1     2s        -0.0711    0.0262    0.0278    0.0003   -0.0305   -0.0655
        3 C1     *s        -0.8279    0.7538    1.4376   -2.1421    1.8237    2.2885
        4 C1     2px        0.0523   -0.1487    0.0081   -0.0321    0.0150   -0.0335
        5 C1     *px        0.3548   -0.7410    0.4643   -1.6393    1.9451    1.1772
        6 C1     2py       -0.0122   -0.1399    0.1889    0.0614    0.1033   -0.0713
        7 C1     *py        0.2869   -1.0477    0.7191    1.1288   -0.3007   -2.3592
        8 C1     2pz       -0.0003   -0.0035    0.0046    0.0014    0.0025   -0.0018
        9 C1     *pz        0.0072   -0.0257    0.0176    0.0260   -0.0059   -0.0559
       10 C1     *200       0.0018    0.0044    0.0120   -0.0031   -0.0077    0.0200
       11 C1     *110      -0.0079    0.0014   -0.0015   -0.0162    0.0125    0.0201
       12 C1     *101      -0.0002    0.0000   -0.0000   -0.0004    0.0003    0.0005
       13 C1     *020       0.0006   -0.0030   -0.0124   -0.0020    0.0198   -0.0091
       14 C1     *011      -0.0001   -0.0001   -0.0005   -0.0003    0.0013   -0.0002
       15 C1     *002       0.0026   -0.0015   -0.0017    0.0048   -0.0074   -0.0053
       16 C2     1s        -0.0852    0.0330   -0.0395   -0.0511    0.0919   -0.0205
       17 C2     2s         0.1118    0.0023    0.0641    0.0479   -0.0113    0.0465
       18 C2     *s         1.3267   -1.1645    0.4993    2.3756   -3.3827   -0.4686
       19 C2     2px        0.0044    0.0664    0.1511   -0.0515   -0.0696    0.2831
       20 C2     *px       -0.1605    0.5782    0.6125   -1.2206   -0.8859    3.5450
       21 C2     2py       -0.1016    0.1091   -0.0014    0.1537   -0.1620    0.0085
       22 C2     *py       -0.9501    0.5597   -0.5601    1.1158   -2.3664   -0.9820
       23 C2     2pz       -0.0024    0.0027    0.0001    0.0037   -0.0039    0.0004
       24 C2     *pz       -0.0230    0.0139   -0.0131    0.0260   -0.0575   -0.0212
       25 C2     *200      -0.0064    0.0055   -0.0151    0.0069   -0.0068   -0.0164
       26 C2     *110       0.0014   -0.0013   -0.0053    0.0153    0.0208    0.0036
       27 C2     *101       0.0000   -0.0000   -0.0002    0.0004    0.0005    0.0001
       28 C2     *020       0.0037   -0.0084    0.0099    0.0030   -0.0069    0.0042
       29 C2     *011       0.0002   -0.0006    0.0003    0.0002   -0.0005   -0.0002
       30 C2     *002      -0.0008    0.0043    0.0036   -0.0016    0.0046    0.0077
       31 H3     1s         0.0066    0.0205    0.0524   -0.0788   -0.0207    0.1783
       32 H3     *s         0.8780   -1.4783    0.2669   -0.4266    0.8316   -0.1644
       33 H4     1s         0.0059   -0.0206   -0.0686   -0.0150    0.1459    0.0417
       34 H4     *s         0.2637    0.8871   -1.6510   -0.1098   -0.5686    1.4822
       35 C5     1s         0.0852    0.0330    0.0395   -0.0511   -0.0919    0.0205
       36 C5     2s        -0.1118    0.0023   -0.0641    0.0479    0.0113   -0.0465
       37 C5     *s        -1.3267   -1.1645   -0.4993    2.3756    3.3827    0.4686
       38 C5     2px       -0.0374   -0.1050    0.1375   -0.0155   -0.1295    0.2620
       39 C5     *px       -0.5334   -0.7560    0.3315    0.6608   -1.7725    2.8384
       40 C5     2py        0.0946    0.0726    0.0627    0.1614    0.1197    0.1074
       41 C5     *py        0.8026    0.2761    0.7608    1.5158    1.8012    2.3392
       42 C5     2pz        0.0022    0.0017    0.0016    0.0039    0.0028    0.0028
       43 C5     *pz        0.0189    0.0061    0.0185    0.0369    0.0421    0.0581
       44 C5     *200       0.0042    0.0027    0.0129    0.0119   -0.0010    0.0116
       45 C5     *110       0.0085    0.0112    0.0150   -0.0074    0.0138    0.0177
       46 C5     *101       0.0002    0.0003    0.0004   -0.0002    0.0003    0.0005
       47 C5     *020      -0.0015   -0.0056   -0.0077   -0.0020    0.0146    0.0005
       48 C5     *011      -0.0001   -0.0005   -0.0002   -0.0000    0.0009    0.0004
       49 C5     *002       0.0008    0.0043   -0.0036   -0.0016   -0.0046   -0.0077
       50 H6     1s        -0.0110   -0.0403    0.0412    0.0413   -0.0052    0.0184
       51 H6     *s        -1.6247    1.0331   -0.3907    0.4084   -1.1790    0.0243
       52 C7     1s        -0.0630   -0.0293    0.0499    0.0600    0.0420    0.0157
       53 C7     2s         0.0711    0.0262   -0.0278    0.0003    0.0305    0.0655
       54 C7     *s         0.8279    0.7538   -1.4376   -2.1421   -1.8237   -2.2885
       55 C7     2px        0.0428    0.1927    0.0843    0.0043    0.0558   -0.0596
       56 C7     *px        0.4409    1.1034    0.7169    1.0379    1.6543    0.1149
       57 C7     2py        0.0324   -0.0673   -0.1693    0.0691   -0.0883    0.0515
       58 C7     *py       -0.1177   -0.6555   -0.4680    1.6980    1.0660    2.6339
       59 C7     2pz        0.0008   -0.0015   -0.0040    0.0017   -0.0021    0.0012
       60 C7     *pz       -0.0025   -0.0149   -0.0107    0.0415    0.0268    0.0634
       61 C7     *200       0.0013    0.0037   -0.0074   -0.0089   -0.0015   -0.0227
       62 C7     *110      -0.0062    0.0046   -0.0191    0.0100    0.0287   -0.0082
       63 C7     *101      -0.0001    0.0001   -0.0005    0.0002    0.0007   -0.0002
       64 C7     *020      -0.0037   -0.0023    0.0078    0.0039   -0.0106    0.0117
       65 C7     *011      -0.0001   -0.0000    0.0003   -0.0000   -0.0008    0.0003
       66 C7     *002      -0.0026   -0.0015    0.0017    0.0048    0.0074    0.0053
       67 H8     1s         0.0110   -0.0403   -0.0412    0.0413    0.0052   -0.0184
       68 H8     *s         1.6247    1.0331    0.3907    0.4084    1.1790   -0.0243
       69 H9     1s        -0.0059   -0.0206    0.0686   -0.0150   -0.1459   -0.0417
       70 H9     *s        -0.2637    0.8871    1.6510   -0.1098    0.5686   -1.4822
       71 H10    1s        -0.0066    0.0205   -0.0524   -0.0788    0.0207   -0.1783
       72 H10    *s        -0.8780   -1.4783   -0.2669   -0.4266   -0.8316    0.1644
--


++    Molecular charges:
      ------------------

      Mulliken charges per centre and basis function type
      ---------------------------------------------------

                C1      C2      H3      H4      C5      H6      C7      H8      H9      H10   
      1s       1.9965  1.9966  0.5278  0.5288  1.9966  0.5319  1.9965  0.5319  0.5288  0.5278
      2s       0.6607  0.6690  0.0000  0.0000  0.6690  0.0000  0.6607  0.0000  0.0000  0.0000
      2px      0.7423  0.7319  0.0000  0.0000  0.7112  0.0000  0.7240  0.0000  0.0000  0.0000
      2pz      0.5160  0.5178  0.0000  0.0000  0.5178  0.0000  0.5160  0.0000  0.0000  0.0000
      2py      0.7339  0.7370  0.0000  0.0000  0.7577  0.0000  0.7521  0.0000  0.0000  0.0000
      *s       0.5798  0.4938  0.2910  0.2942  0.4938  0.2832  0.5798  0.2832  0.2942  0.2910
      *px      0.3029  0.1766  0.0000  0.0000  0.2321  0.0000  0.3538  0.0000  0.0000  0.0000
      *pz      0.4855  0.4619  0.0000  0.0000  0.4619  0.0000  0.4855  0.0000  0.0000  0.0000
      *py      0.3123  0.3061  0.0000  0.0000  0.2507  0.0000  0.2614  0.0000  0.0000  0.0000
      *200     0.0315  0.0245  0.0000  0.0000  0.0225  0.0000  0.0320  0.0000  0.0000  0.0000
      *110     0.0107  0.0123  0.0000  0.0000  0.0185  0.0000  0.0137  0.0000  0.0000  0.0000
      *101     0.0044  0.0078  0.0000  0.0000  0.0046  0.0000  0.0014  0.0000  0.0000  0.0000
      *020     0.0320  0.0315  0.0000  0.0000  0.0274  0.0000  0.0285  0.0000  0.0000  0.0000
      *011     0.0034  0.0033  0.0000  0.0000  0.0065  0.0000  0.0064  0.0000  0.0000  0.0000
      *002    -0.0203 -0.0187  0.0000  0.0000 -0.0187  0.0000 -0.0203  0.0000  0.0000  0.0000
      Total    6.3914  6.1517  0.8188  0.8231  6.1517  0.8151  6.3914  0.8151  0.8231  0.8188

      N-E     -0.3914 -0.1517  0.1812  0.1769 -0.1517  0.1849 -0.3914  0.1849  0.1769  0.1812

      Total electronic charge=   30.000000

      Total            charge=   -0.000000
--


++    Molecular properties:
      ---------------------

      Charge (e):
                      =   -0.0000
      Dipole Moment (Debye):
      Origin of the operator (Ang)=    0.0000    0.0000    0.0000
                   X=  1.3252E-02               Y= -6.2287E-02               Z= -1.4527E-03           Total=  6.3697E-02
      Quadrupole Moment (Debye*Ang):
      Origin of the operator (Ang)=   -1.2211    1.5268   -0.0017
                  XX= -2.2880E+01              XY= -1.0233E-01              XZ=  1.6798E-03              YY= -2.2424E+01
                  YZ=  1.4860E-01              ZZ= -2.8604E+01
      In traceless form (Debye*Ang)
                  XX=  2.6343E+00              XY= -1.5350E-01              XZ=  2.5197E-03              YY=  3.3175E+00
                  YZ=  2.2290E-01              ZZ= -5.9518E+00
--


      Input file to MOLDEN was generated!

 ###############################################################################
 ###############################################################################
 ###                                                                         ###
 ###                                                                         ###
 ###    WARNING: RunFile label nBas                                          ###
 ###    was used       63 times                                              ###
 ###                                                                         ###
 ###                                                                         ###
 ###############################################################################
 ###############################################################################
--- Stop Module: last_energy at Tue May 14 15:17:25 2024 /rc=_RC_ALL_IS_WELL_ ---
*** files: cis-1,3-butadiene.scf.molden cis-1,3-butadiene.ScfOrb xmldump
    saved to directory /home/kenya/molcas_test/0514
--- Module last_energy spent 2 seconds ---

>>> END DO

.##################.
.# Happy landing! #.
.##################.

    Timing: Wall=23.33 User=21.07 System=2.05
