[Molden Format]
[N_Atoms]
                   16
[Atoms] (AU)
C1          1      6          -7.79215706      2.90497449      0.26462668
C2          2      6         -10.23297334      1.43556806      0.13995171
C3          3      6          -5.53251738      1.30941249     -0.58479412
H4          4      1          -7.49888836      3.57599982      2.18913646
H5          5      1          -7.94364042      4.59055270     -0.90076353
C6          6      6         -10.34309565     -1.04613087     -0.10684481
H7          7      1         -11.96149815      2.50663783      0.26324097
C8          8      6          -8.04176200     -2.72406868     -0.25062330
H9          9      1         -12.15989788     -1.96130068     -0.21585295
C10        10      6          -5.64402513     -1.33330327      0.58000157
H11        11      1          -7.82402683     -3.41758685     -2.17718580
H12        12      1          -8.33123040     -4.39024332      0.91656403
H13        13      1          -3.77761914      2.24675541     -0.07980432
H14        14      1          -5.55105176      1.14437555     -2.63390215
H15        15      1          -3.98230048     -2.42088560      0.06122434
H16        16      1          -5.63149425     -1.16800094      2.62913358
[Charge] (Mulliken)
 -0.33086210465997024     
 -0.18097995405543088     
 -0.31939252789005668     
  0.16626361109188981     
  0.16717443403867660     
 -0.18097959418912346     
  0.17580177920686646     
 -0.33086216286747661     
  0.17580159179380916     
 -0.31939249250950041     
  0.16626357775927492     
  0.16717454596134229     
  0.16206733345124980     
  0.15992728513209453     
  0.16206746568512442     
  0.15992721205011529     
[GTO] (AU)
   1
   s   6
  3.047524880E+03  1.834737132E-03
  4.573695180E+02  1.403732281E-02
  1.039486850E+02  6.884262227E-02
  2.921015530E+01  2.321844432E-01
  9.286662960E+00  4.679413484E-01
  3.163926960E+00  3.623119853E-01
   s   3
  7.868272350E+00 -1.193324198E-01
  1.881288540E+00 -1.608541517E-01
  5.442492580E-01  1.143456438E+00
   s   1
  1.687144782E-01  1.000000000E+00
   p   3
  7.868272350E+00  6.899906659E-02
  1.881288540E+00  3.164239610E-01
  5.442492580E-01  7.443082909E-01
   p   1
  1.687144782E-01  1.000000000E+00
   d   1
  8.000000000E-01  1.000000000E+00
 
   2
   s   6
  3.047524880E+03  1.834737132E-03
  4.573695180E+02  1.403732281E-02
  1.039486850E+02  6.884262227E-02
  2.921015530E+01  2.321844432E-01
  9.286662960E+00  4.679413484E-01
  3.163926960E+00  3.623119853E-01
   s   3
  7.868272350E+00 -1.193324198E-01
  1.881288540E+00 -1.608541517E-01
  5.442492580E-01  1.143456438E+00
   s   1
  1.687144782E-01  1.000000000E+00
   p   3
  7.868272350E+00  6.899906659E-02
  1.881288540E+00  3.164239610E-01
  5.442492580E-01  7.443082909E-01
   p   1
  1.687144782E-01  1.000000000E+00
   d   1
  8.000000000E-01  1.000000000E+00
 
   3
   s   6
  3.047524880E+03  1.834737132E-03
  4.573695180E+02  1.403732281E-02
  1.039486850E+02  6.884262227E-02
  2.921015530E+01  2.321844432E-01
  9.286662960E+00  4.679413484E-01
  3.163926960E+00  3.623119853E-01
   s   3
  7.868272350E+00 -1.193324198E-01
  1.881288540E+00 -1.608541517E-01
  5.442492580E-01  1.143456438E+00
   s   1
  1.687144782E-01  1.000000000E+00
   p   3
  7.868272350E+00  6.899906659E-02
  1.881288540E+00  3.164239610E-01
  5.442492580E-01  7.443082909E-01
   p   1
  1.687144782E-01  1.000000000E+00
   d   1
  8.000000000E-01  1.000000000E+00
 
   4
   s   3
  1.873113696E+01  3.349460434E-02
  2.825394365E+00  2.347269535E-01
  6.401216923E-01  8.137573261E-01
   s   1
  1.612777588E-01  1.000000000E+00
 
   5
   s   3
  1.873113696E+01  3.349460434E-02
  2.825394365E+00  2.347269535E-01
  6.401216923E-01  8.137573261E-01
   s   1
  1.612777588E-01  1.000000000E+00
 
   6
   s   6
  3.047524880E+03  1.834737132E-03
  4.573695180E+02  1.403732281E-02
  1.039486850E+02  6.884262227E-02
  2.921015530E+01  2.321844432E-01
  9.286662960E+00  4.679413484E-01
  3.163926960E+00  3.623119853E-01
   s   3
  7.868272350E+00 -1.193324198E-01
  1.881288540E+00 -1.608541517E-01
  5.442492580E-01  1.143456438E+00
   s   1
  1.687144782E-01  1.000000000E+00
   p   3
  7.868272350E+00  6.899906659E-02
  1.881288540E+00  3.164239610E-01
  5.442492580E-01  7.443082909E-01
   p   1
  1.687144782E-01  1.000000000E+00
   d   1
  8.000000000E-01  1.000000000E+00
 
   7
   s   3
  1.873113696E+01  3.349460434E-02
  2.825394365E+00  2.347269535E-01
  6.401216923E-01  8.137573261E-01
   s   1
  1.612777588E-01  1.000000000E+00
 
   8
   s   6
  3.047524880E+03  1.834737132E-03
  4.573695180E+02  1.403732281E-02
  1.039486850E+02  6.884262227E-02
  2.921015530E+01  2.321844432E-01
  9.286662960E+00  4.679413484E-01
  3.163926960E+00  3.623119853E-01
   s   3
  7.868272350E+00 -1.193324198E-01
  1.881288540E+00 -1.608541517E-01
  5.442492580E-01  1.143456438E+00
   s   1
  1.687144782E-01  1.000000000E+00
   p   3
  7.868272350E+00  6.899906659E-02
  1.881288540E+00  3.164239610E-01
  5.442492580E-01  7.443082909E-01
   p   1
  1.687144782E-01  1.000000000E+00
   d   1
  8.000000000E-01  1.000000000E+00
 
   9
   s   3
  1.873113696E+01  3.349460434E-02
  2.825394365E+00  2.347269535E-01
  6.401216923E-01  8.137573261E-01
   s   1
  1.612777588E-01  1.000000000E+00
 
  10
   s   6
  3.047524880E+03  1.834737132E-03
  4.573695180E+02  1.403732281E-02
  1.039486850E+02  6.884262227E-02
  2.921015530E+01  2.321844432E-01
  9.286662960E+00  4.679413484E-01
  3.163926960E+00  3.623119853E-01
   s   3
  7.868272350E+00 -1.193324198E-01
  1.881288540E+00 -1.608541517E-01
  5.442492580E-01  1.143456438E+00
   s   1
  1.687144782E-01  1.000000000E+00
   p   3
  7.868272350E+00  6.899906659E-02
  1.881288540E+00  3.164239610E-01
  5.442492580E-01  7.443082909E-01
   p   1
  1.687144782E-01  1.000000000E+00
   d   1
  8.000000000E-01  1.000000000E+00
 
  11
   s   3
  1.873113696E+01  3.349460434E-02
  2.825394365E+00  2.347269535E-01
  6.401216923E-01  8.137573261E-01
   s   1
  1.612777588E-01  1.000000000E+00
 
  12
   s   3
  1.873113696E+01  3.349460434E-02
  2.825394365E+00  2.347269535E-01
  6.401216923E-01  8.137573261E-01
   s   1
  1.612777588E-01  1.000000000E+00
 
  13
   s   3
  1.873113696E+01  3.349460434E-02
  2.825394365E+00  2.347269535E-01
  6.401216923E-01  8.137573261E-01
   s   1
  1.612777588E-01  1.000000000E+00
 
  14
   s   3
  1.873113696E+01  3.349460434E-02
  2.825394365E+00  2.347269535E-01
  6.401216923E-01  8.137573261E-01
   s   1
  1.612777588E-01  1.000000000E+00
 
  15
   s   3
  1.873113696E+01  3.349460434E-02
  2.825394365E+00  2.347269535E-01
  6.401216923E-01  8.137573261E-01
   s   1
  1.612777588E-01  1.000000000E+00
 
  16
   s   3
  1.873113696E+01  3.349460434E-02
  2.825394365E+00  2.347269535E-01
  6.401216923E-01  8.137573261E-01
   s   1
  1.612777588E-01  1.000000000E+00
 
[MO]
Sym=     1a  
Ene=   -11.2170
Spin= Alpha
Occup=    2.00000
   1         0.67406138
   2         0.01953142
   3        -0.01187916
   4        -0.00004703
   5        -0.00005932
   6         0.00003812
   7         0.00001070
   8         0.00096093
   9         0.00008233
  10        -0.00118086
  11        -0.00117817
  12        -0.00107132
  13        -0.00002084
  14         0.00002031
  15        -0.00005160
  16         0.19350252
  17         0.00524601
  18         0.00146813
  19         0.00002326
  20         0.00012213
  21         0.00002234
  22         0.00127088
  23         0.00036917
  24        -0.00000856
  25        -0.00064645
  26        -0.00047546
  27        -0.00063581
  28        -0.00012681
  29        -0.00000839
  30         0.00001984
  31         0.05562936
  32         0.00141487
  33         0.00248185
  34         0.00001689
  35         0.00015243
  36         0.00002822
  37        -0.00150260
  38         0.00036510
  39         0.00013995
  40        -0.00033830
  41        -0.00032990
  42        -0.00025518
  43         0.00013580
  44         0.00008932
  45        -0.00002359
  46         0.00016473
  47         0.00194131
  48         0.00013404
  49         0.00170804
  50         0.19364062
  51         0.00525014
  52         0.00147070
  53         0.00001233
  54        -0.00012363
  55        -0.00002250
  56         0.00123665
  57        -0.00048182
  58        -0.00000171
  59        -0.00062646
  60        -0.00049663
  61        -0.00063637
  62         0.00014257
  63         0.00001010
  64         0.00001792
  65        -0.00012122
  66         0.00053869
  67         0.67525408
  68         0.01956581
  69        -0.01189978
  70        -0.00004201
  71         0.00006344
  72        -0.00003778
  73        -0.00007366
  74        -0.00095917
  75        -0.00008202
  76        -0.00118009
  77        -0.00118327
  78        -0.00107288
  79         0.00002044
  80        -0.00002380
  81        -0.00004985
  82        -0.00012131
  83         0.00053907
  84         0.05571819
  85         0.00141791
  86         0.00248317
  87         0.00000301
  88        -0.00015326
  89        -0.00002830
  90        -0.00153096
  91        -0.00023376
  92        -0.00012819
  93        -0.00036052
  94        -0.00030975
  95        -0.00025410
  96        -0.00013308
  97        -0.00009023
  98        -0.00001466
  99         0.00016497
 100         0.00194480
 101         0.00013428
 102         0.00171113
 103        -0.00006256
 104         0.00045500
 105        -0.00022545
 106         0.00005611
 107        -0.00006266
 108         0.00045458
 109        -0.00022548
 110         0.00005661
Sym=     2a  
Ene=   -11.2170
Spin= Alpha
Occup=    2.00000
   1        -0.69805579
   2        -0.02013010
   3         0.01205637
   4         0.00004790
   5         0.00012159
   6        -0.00001072
   7        -0.00045336
   8        -0.00057301
   9         0.00003428
  10         0.00121687
  11         0.00113848
  12         0.00109391
  13         0.00001818
  14        -0.00002030
  15         0.00001685
  16        -0.08134368
  17        -0.00243202
  18        -0.00149207
  19        -0.00003232
  20         0.00003885
  21        -0.00000931
  22        -0.00189856
  23        -0.00131664
  24        -0.00009468
  25         0.00042226
  26         0.00035101
  27         0.00025275
  28         0.00017599
  29         0.00002072
  30         0.00001074
  31        -0.05246754
  32        -0.00179532
  33        -0.00074369
  34         0.00012359
  35         0.00002444
  36        -0.00000074
  37         0.00049234
  38        -0.00122961
  39        -0.00028660
  40         0.00025570
  41         0.00022556
  42         0.00009957
  43        -0.00007786
  44        -0.00006607
  45         0.00003560
  46        -0.00014014
  47        -0.00204234
  48        -0.00013782
  49        -0.00180527
  50         0.08100050
  51         0.00242271
  52         0.00148966
  53         0.00003551
  54         0.00003608
  55        -0.00000954
  56         0.00177273
  57        -0.00147737
  58        -0.00010947
  59        -0.00039368
  60        -0.00037733
  61        -0.00025192
  62         0.00018011
  63         0.00002107
  64        -0.00001405
  65         0.00005592
  66        -0.00022370
  67         0.69690582
  68         0.02009678
  69        -0.01203612
  70        -0.00003705
  71         0.00012522
  72        -0.00001031
  73         0.00040172
  74        -0.00060898
  75         0.00003098
  76        -0.00121179
  77        -0.00113981
  78        -0.00109180
  79         0.00002566
  80        -0.00002054
  81        -0.00001515
  82        -0.00005572
  83         0.00022276
  84         0.05237164
  85         0.00179288
  86         0.00073946
  87        -0.00012097
  88         0.00003546
  89         0.00000029
  90        -0.00059804
  91        -0.00118115
  92        -0.00028198
  93        -0.00026759
  94        -0.00021346
  95        -0.00009820
  96        -0.00007360
  97        -0.00006724
  98        -0.00002909
  99         0.00013986
 100         0.00203902
 101         0.00013759
 102         0.00180235
 103         0.00006086
 104         0.00024463
 105         0.00001669
 106        -0.00029674
 107        -0.00006075
 108        -0.00024541
 109        -0.00001630
 110         0.00029665
Sym=     3a  
Ene=   -11.2160
Spin= Alpha
Occup=    2.00000
   1        -0.19232458
   2        -0.00544698
   3         0.00470382
   4         0.00008412
   5         0.00009200
   6         0.00002758
   7        -0.00073410
   8        -0.00087281
   9        -0.00015374
  10         0.00001274
  11         0.00024004
  12         0.00026598
  13        -0.00010622
  14        -0.00000628
  15         0.00000608
  16         0.67654597
  17         0.01855732
  18        -0.00632404
  19         0.00010432
  20         0.00010751
  21         0.00001339
  22        -0.00078899
  23        -0.00083568
  24        -0.00005435
  25        -0.00144167
  26        -0.00113813
  27        -0.00162457
  28         0.00004612
  29         0.00000336
  30         0.00005654
  31        -0.02658667
  32        -0.00084250
  33        -0.00053093
  34         0.00008098
  35        -0.00002297
  36         0.00001865
  37         0.00014975
  38        -0.00018787
  39        -0.00026200
  40         0.00014137
  41         0.00012007
  42         0.00006186
  43        -0.00004908
  44        -0.00003358
  45         0.00002924
  46        -0.00014144
  47        -0.00016870
  48        -0.00008746
  49        -0.00028065
  50         0.67655788
  51         0.01855766
  52        -0.00632424
  53         0.00009438
  54        -0.00011624
  55        -0.00001419
  56        -0.00071214
  57         0.00090163
  58         0.00006039
  59        -0.00144633
  60        -0.00113354
  61        -0.00162457
  62        -0.00001431
  63        -0.00000004
  64         0.00005693
  65        -0.00010622
  66         0.00119842
  67        -0.19231324
  68        -0.00544666
  69         0.00470371
  70         0.00007550
  71        -0.00009902
  72        -0.00002823
  73        -0.00065339
  74         0.00093385
  75         0.00015934
  76         0.00003066
  77         0.00022217
  78         0.00026585
  79         0.00012757
  80         0.00000902
  81         0.00000446
  82        -0.00010622
  83         0.00119844
  84        -0.02658566
  85        -0.00084246
  86        -0.00053098
  87         0.00008253
  88         0.00001578
  89        -0.00001930
  90         0.00016779
  91         0.00017388
  92         0.00026072
  93         0.00014913
  94         0.00011279
  95         0.00006138
  96         0.00004637
  97         0.00003522
  98         0.00002583
  99        -0.00014143
 100        -0.00016866
 101        -0.00008747
 102        -0.00028062
 103         0.00004700
 104         0.00007451
 105        -0.00002411
 106        -0.00009939
 107         0.00004700
 108         0.00007450
 109        -0.00002410
 110        -0.00009939
Sym=     4a  
Ene=   -11.2140
Spin= Alpha
Occup=    2.00000
   1         0.08001827
   2         0.00221396
   3        -0.00461604
   4         0.00000475
   5        -0.00003480
   6        -0.00003167
   7         0.00079255
   8         0.00146090
   9         0.00030799
  10         0.00025398
  11         0.00005352
  12        -0.00008703
  13         0.00015305
  14         0.00002137
  15         0.00000381
  16        -0.69945916
  17        -0.01979076
  18         0.01420799
  19        -0.00015201
  20         0.00013621
  21         0.00000841
  22         0.00220212
  23        -0.00243683
  24        -0.00027272
  25         0.00107933
  26         0.00082122
  27         0.00156162
  28        -0.00010226
  29        -0.00001442
  30        -0.00009224
  31         0.02088434
  32         0.00060145
  33         0.00094105
  34        -0.00007114
  35         0.00000839
  36        -0.00000970
  37        -0.00017870
  38         0.00020172
  39         0.00027683
  40        -0.00010411
  41        -0.00005830
  42        -0.00004912
  43        -0.00002229
  44         0.00000217
  45        -0.00002696
  46         0.00016601
  47        -0.00014217
  48         0.00011617
  49         0.00005131
  50         0.69944926
  51         0.01979049
  52        -0.01420789
  53         0.00016344
  54         0.00012234
  55         0.00000714
  56        -0.00240962
  57        -0.00223405
  58        -0.00025414
  59        -0.00109293
  60        -0.00080776
  61        -0.00156142
  62        -0.00007387
  63        -0.00001065
  64         0.00009406
  65         0.00014807
  66        -0.00085234
  67        -0.08001481
  68        -0.00221386
  69         0.00461596
  70        -0.00000804
  71        -0.00003423
  72        -0.00003162
  73        -0.00065873
  74         0.00152472
  75         0.00031383
  76        -0.00022895
  77        -0.00007824
  78         0.00008671
  79         0.00017087
  80         0.00002395
  81        -0.00000711
  82        -0.00014807
  83         0.00085232
  84        -0.02088330
  85        -0.00060142
  86        -0.00094105
  87         0.00007152
  88         0.00000211
  89        -0.00001028
  90         0.00019794
  91         0.00018516
  92         0.00027531
  93         0.00010044
  94         0.00006201
  95         0.00004908
  96        -0.00002636
  97         0.00000404
  98         0.00002688
  99        -0.00016600
 100         0.00014217
 101        -0.00011617
 102        -0.00005129
 103        -0.00004448
 104        -0.00020588
 105         0.00000012
 106         0.00006634
 107         0.00004448
 108         0.00020588
 109        -0.00000012
 110        -0.00006633
Sym=     5a  
Ene=   -11.2140
Spin= Alpha
Occup=    2.00000
   1        -0.06113892
   2        -0.00196267
   3         0.00495272
   4         0.00002084
   5         0.00003152
   6        -0.00006142
   7         0.00127735
   8        -0.00126303
   9        -0.00009861
  10        -0.00024449
  11        -0.00006001
  12        -0.00008540
  13         0.00008105
  14         0.00006733
  15        -0.00005518
  16         0.01024502
  17         0.00013303
  18        -0.00052730
  19        -0.00013197
  20        -0.00000078
  21        -0.00001681
  22         0.00005960
  23        -0.00014307
  24        -0.00004201
  25         0.00001101
  26        -0.00000115
  27        -0.00009693
  28         0.00000923
  29        -0.00002897
  30         0.00001927
  31         0.70136908
  32         0.02029789
  33        -0.01005997
  34        -0.00014015
  35        -0.00015425
  36         0.00004242
  37         0.00111424
  38        -0.00100771
  39         0.00000718
  40        -0.00117997
  41        -0.00139048
  42        -0.00119558
  43         0.00003917
  44         0.00004580
  45         0.00014001
  46        -0.00019863
  47        -0.00047143
  48        -0.00012699
  49         0.00004324
  50         0.01024516
  51         0.00013304
  52        -0.00052732
  53        -0.00013125
  54         0.00001235
  55         0.00001787
  56         0.00007227
  57         0.00013726
  58         0.00004148
  59         0.00000994
  60         0.00000033
  61        -0.00009734
  62        -0.00001019
  63         0.00002955
  64         0.00001678
  65         0.00001454
  66         0.00026231
  67        -0.06113986
  68        -0.00196268
  69         0.00495282
  70         0.00001849
  71        -0.00003324
  72         0.00006126
  73         0.00138408
  74         0.00114601
  75         0.00008790
  76        -0.00025634
  77        -0.00004913
  78        -0.00008444
  79        -0.00006155
  80        -0.00007035
  81        -0.00004854
  82         0.00001454
  83         0.00026232
  84         0.70139747
  85         0.02029870
  86        -0.01006058
  87        -0.00012641
  88         0.00016597
  89        -0.00004134
  90         0.00119833
  91         0.00090596
  92        -0.00001649
  93        -0.00118803
  94        -0.00138305
  95        -0.00119506
  96        -0.00005865
  97        -0.00003343
  98         0.00014388
  99        -0.00019863
 100        -0.00047142
 101        -0.00012699
 102         0.00004322
 103         0.00004474
 104         0.00158699
 105         0.00010489
 106         0.00195938
 107         0.00004475
 108         0.00158706
 109         0.00010490
 110         0.00195946
Sym=     6a  
Ene=   -11.2130
Spin= Alpha
Occup=    2.00000
   1         0.05459504
   2         0.00133528
   3        -0.00357524
   4        -0.00009607
   5         0.00011248
   6        -0.00004884
   7        -0.00094163
   8         0.00062230
   9         0.00081651
  10         0.00012751
  11         0.00006862
  12        -0.00006012
  13        -0.00013238
  14        -0.00009254
  15         0.00002113
  16        -0.01476646
  17        -0.00037921
  18         0.00117254
  19         0.00000571
  20         0.00003792
  21        -0.00004532
  22         0.00011009
  23        -0.00044753
  24         0.00000030
  25        -0.00007085
  26         0.00001381
  27         0.00001299
  28         0.00001671
  29         0.00003613
  30        -0.00003727
  31        -0.70203135
  32        -0.02009636
  33         0.01529479
  34         0.00009183
  35        -0.00003390
  36        -0.00000847
  37        -0.00082936
  38        -0.00150836
  39         0.00079682
  40         0.00100788
  41         0.00084773
  42         0.00099816
  43        -0.00001764
  44        -0.00001604
  45         0.00008703
  46         0.00010001
  47        -0.00023193
  48         0.00010932
  49         0.00053773
  50         0.01476591
  51         0.00037921
  52        -0.00117253
  53        -0.00000272
  54         0.00003829
  55        -0.00004528
  56        -0.00014896
  57        -0.00043615
  58         0.00000134
  59         0.00007327
  60        -0.00001571
  61        -0.00001350
  62         0.00000817
  63         0.00003846
  64         0.00003389
  65         0.00001021
  66        -0.00006380
  67        -0.05459169
  68        -0.00133518
  69         0.00357506
  70         0.00010518
  71         0.00010362
  72        -0.00004965
  73         0.00099911
  74         0.00053694
  75         0.00080867
  76        -0.00014840
  77        -0.00004902
  78         0.00006142
  79        -0.00012446
  80        -0.00009214
  81        -0.00001196
  82        -0.00001021
  83         0.00006378
  84         0.70200318
  85         0.02009554
  86        -0.01529440
  87        -0.00009451
  88        -0.00002571
  89        -0.00000771
  90         0.00070011
  91        -0.00157565
  92         0.00079065
  93        -0.00100960
  94        -0.00084619
  95        -0.00099783
  96        -0.00000187
  97        -0.00002351
  98        -0.00008521
  99        -0.00010000
 100         0.00023195
 101        -0.00010931
 102        -0.00053772
 103        -0.00022943
 104        -0.00184237
 105        -0.00030241
 106        -0.00197448
 107         0.00022943
 108         0.00184230
 109         0.00030241
 110         0.00197441
Sym=     7a  
Ene=    -1.1163
Spin= Alpha
Occup=    2.00000
   1        -0.08574378
   2         0.15817648
   3         0.12267147
   4        -0.00377931
   5        -0.04188690
   6        -0.00886390
   7        -0.00045253
   8        -0.00698399
   9        -0.00031651
  10         0.00658335
  11         0.00498490
  12         0.00039529
  13         0.00051895
  14        -0.00084777
  15         0.00141394
  16        -0.09423359
  17         0.17717322
  18         0.11704880
  19         0.03566065
  20        -0.04070651
  21        -0.00469960
  22         0.00314266
  23        -0.00106974
  24         0.00005232
  25         0.00490464
  26         0.00841456
  27        -0.00768925
  28         0.00163462
  29        -0.00005137
  30         0.00181414
  31        -0.08554411
  32         0.15686187
  33         0.12145097
  34        -0.03355655
  35        -0.01608780
  36         0.01893552
  37        -0.00677331
  38        -0.00326164
  39         0.00170432
  40         0.00419050
  41         0.00555483
  42         0.00153580
  43        -0.00124274
  44        -0.00192230
  45        -0.00126536
  46         0.04253654
  47         0.00394128
  48         0.04032687
  49         0.00460114
  50        -0.09423356
  51         0.17717317
  52         0.11704879
  53         0.03913258
  54         0.03741763
  55         0.00439823
  56         0.00322391
  57         0.00078974
  58        -0.00007800
  59         0.00468623
  60         0.00863398
  61        -0.00769027
  62        -0.00124055
  63         0.00009506
  64         0.00181933
  65         0.03901303
  66         0.00345767
  67        -0.08574366
  68         0.15817628
  69         0.12267129
  70        -0.00001661
  71         0.04205379
  72         0.00887884
  73         0.00016482
  74         0.00699658
  75         0.00031768
  76         0.00650556
  77         0.00507500
  78         0.00038298
  79        -0.00066191
  80         0.00091159
  81         0.00134130
  82         0.03901304
  83         0.00345766
  84        -0.08554404
  85         0.15686177
  86         0.12145073
  87        -0.03216625
  88         0.01897788
  89        -0.01867030
  90        -0.00647433
  91         0.00384414
  92        -0.00165088
  93         0.00441419
  94         0.00535701
  95         0.00150994
  96         0.00134915
  97         0.00177751
  98        -0.00143856
  99         0.04253645
 100         0.00394129
 101         0.04032685
 102         0.00460110
 103         0.03934355
 104         0.00553464
 105         0.04467102
 106         0.00419732
 107         0.03934353
 108         0.00553462
 109         0.04467098
 110         0.00419737
Sym=     8a  
Ene=    -1.0039
Spin= Alpha
Occup=    2.00000
   1        -0.00409775
   2         0.00860361
   3         0.00318673
   4         0.08420020
   5        -0.00080560
   6        -0.00907649
   7         0.01595479
   8         0.00219906
   9        -0.00238812
  10        -0.00107314
  11         0.00027078
  12         0.00138146
  13        -0.01099387
  14        -0.00272857
  15         0.00135616
  16         0.11430328
  17        -0.21589216
  18        -0.16783714
  19         0.02303498
  20         0.08046741
  21         0.00734410
  22         0.00617795
  23         0.00628365
  24         0.00086500
  25        -0.00019299
  26        -0.01217229
  27         0.00851482
  28         0.00189377
  29         0.00022363
  30        -0.00248961
  31        -0.10276870
  32         0.19080041
  33         0.17258018
  34         0.01287886
  35        -0.03821537
  36         0.01488272
  37         0.00404637
  38        -0.00639908
  39         0.00185025
  40         0.00092129
  41         0.00753863
  42         0.00430671
  43         0.00246775
  44         0.00100953
  45        -0.00281794
  46         0.00427678
  47         0.00309043
  48         0.00214471
  49         0.00038565
  50         0.11430309
  51        -0.21589179
  52        -0.16783690
  53         0.01582344
  54        -0.08217640
  55        -0.00750074
  56         0.00559538
  57        -0.00680144
  58        -0.00091245
  59        -0.00057762
  60        -0.01179168
  61         0.00851887
  62        -0.00309367
  63        -0.00035798
  64        -0.00244386
  65        -0.06714321
  66        -0.01417193
  67        -0.00409827
  68         0.00860458
  69         0.00318757
  70         0.08401626
  71        -0.00659139
  72         0.00839829
  73         0.01571890
  74        -0.00359182
  75         0.00226037
  76         0.00064189
  77        -0.00140520
  78         0.00134248
  79         0.01096774
  80         0.00284774
  81         0.00102206
  82        -0.06714310
  83        -0.01417193
  84        -0.10276905
  85         0.19080103
  86         0.17258089
  87         0.01606301
  88         0.03694240
  89        -0.01499935
  90         0.00457729
  91         0.00601987
  92        -0.00188499
  93         0.00058134
  94         0.00786302
  95         0.00432231
  96        -0.00178299
  97        -0.00121897
  98        -0.00270269
  99         0.00427707
 100         0.00309046
 101         0.00214504
 102         0.00038577
 103         0.06604011
 104         0.01394004
 105         0.06137828
 106         0.01267280
 107         0.06604032
 108         0.01394012
 109         0.06137859
 110         0.01267286
Sym=     9a  
Ene=    -0.9993
Spin= Alpha
Occup=    2.00000
   1         0.12390357
   2        -0.23085607
   3        -0.21147025
   4        -0.00090332
   5         0.00759386
   6         0.00739144
   7        -0.00004847
   8        -0.00152620
   9        -0.00131346
  10        -0.00524943
  11        -0.00467942
  12        -0.00488548
  13         0.00058495
  14         0.00027459
  15         0.00007516
  16         0.05018717
  17        -0.09580954
  18        -0.06484335
  19        -0.04789067
  20        -0.06705953
  21        -0.00489653
  22        -0.00619382
  23        -0.01656971
  24        -0.00110817
  25        -0.01106314
  26        -0.00021239
  27         0.00472431
  28        -0.00581854
  29        -0.00026897
  30        -0.00056147
  31         0.06154968
  32        -0.11368145
  33        -0.10545160
  34         0.03753846
  35        -0.06909906
  36        -0.00436094
  37         0.00796107
  38        -0.01314195
  39         0.00027368
  40        -0.00847013
  41         0.00269487
  42        -0.00154227
  43         0.00533091
  44         0.00221887
  45        -0.00509729
  46        -0.07677286
  47        -0.01480981
  48        -0.08024255
  49        -0.01784691
  50        -0.05018772
  51         0.09581059
  52         0.06484418
  53         0.04177858
  54        -0.07100239
  55        -0.00525777
  56         0.00470634
  57        -0.01704902
  58        -0.00115210
  59         0.01009432
  60         0.00117689