[Molden Format]
[N_Atoms]
                   16
[Atoms] (AU)
C1          1      6          -7.78047489      2.88341971      0.28982730
C2          2      6         -10.25174533      1.45637413      0.16933836
C3          3      6          -5.52669302      1.28610981     -0.61777037
H4          4      1          -7.51455263      3.51065761      2.27589166
H5          5      1          -7.87227778      4.58725348     -0.93273102
C6          6      6         -10.36386278     -1.06520082     -0.13609808
H7          7      1         -11.99996876      2.51505540      0.34878675
C8          8      6          -8.02842585     -2.70361227     -0.27590001
H9          9      1         -12.19963722     -1.96626003     -0.30114676
C10        10      6          -5.63590030     -1.31061955      0.61291377
H11        11      1          -7.83459664     -3.35116472     -2.26377851
H12        12      1          -8.25961495     -4.39319750      0.94803780
H13        13      1          -3.73882314      2.28295923     -0.15063007
H14        14      1          -5.61286454      1.03059994     -2.70361227
H15        15      1          -3.94625837     -2.46036672      0.13171391
H16        16      1          -5.68248205     -1.04925153      2.69926590
[Charge] (Mulliken)
   0.0000000000000000     
   0.0000000000000000     
   0.0000000000000000     
   0.0000000000000000     
   0.0000000000000000     
   0.0000000000000000     
   0.0000000000000000     
   0.0000000000000000     
   0.0000000000000000     
   0.0000000000000000     
   0.0000000000000000     
   0.0000000000000000     
   0.0000000000000000     
   0.0000000000000000     
   0.0000000000000000     
   0.0000000000000000     
[GTO] (AU)
   1
   s   6
  3.047524880E+03  1.834737132E-03
  4.573695180E+02  1.403732281E-02
  1.039486850E+02  6.884262227E-02
  2.921015530E+01  2.321844432E-01
  9.286662960E+00  4.679413484E-01
  3.163926960E+00  3.623119853E-01
   s   3
  7.868272350E+00 -1.193324198E-01
  1.881288540E+00 -1.608541517E-01
  5.442492580E-01  1.143456438E+00
   s   1
  1.687144782E-01  1.000000000E+00
   p   3
  7.868272350E+00  6.899906659E-02
  1.881288540E+00  3.164239610E-01
  5.442492580E-01  7.443082909E-01
   p   1
  1.687144782E-01  1.000000000E+00
   d   1
  8.000000000E-01  1.000000000E+00
 
   2
   s   6
  3.047524880E+03  1.834737132E-03
  4.573695180E+02  1.403732281E-02
  1.039486850E+02  6.884262227E-02
  2.921015530E+01  2.321844432E-01
  9.286662960E+00  4.679413484E-01
  3.163926960E+00  3.623119853E-01
   s   3
  7.868272350E+00 -1.193324198E-01
  1.881288540E+00 -1.608541517E-01
  5.442492580E-01  1.143456438E+00
   s   1
  1.687144782E-01  1.000000000E+00
   p   3
  7.868272350E+00  6.899906659E-02
  1.881288540E+00  3.164239610E-01
  5.442492580E-01  7.443082909E-01
   p   1
  1.687144782E-01  1.000000000E+00
   d   1
  8.000000000E-01  1.000000000E+00
 
   3
   s   6
  3.047524880E+03  1.834737132E-03
  4.573695180E+02  1.403732281E-02
  1.039486850E+02  6.884262227E-02
  2.921015530E+01  2.321844432E-01
  9.286662960E+00  4.679413484E-01
  3.163926960E+00  3.623119853E-01
   s   3
  7.868272350E+00 -1.193324198E-01
  1.881288540E+00 -1.608541517E-01
  5.442492580E-01  1.143456438E+00
   s   1
  1.687144782E-01  1.000000000E+00
   p   3
  7.868272350E+00  6.899906659E-02
  1.881288540E+00  3.164239610E-01
  5.442492580E-01  7.443082909E-01
   p   1
  1.687144782E-01  1.000000000E+00
   d   1
  8.000000000E-01  1.000000000E+00
 
   4
   s   3
  1.873113696E+01  3.349460434E-02
  2.825394365E+00  2.347269535E-01
  6.401216923E-01  8.137573261E-01
   s   1
  1.612777588E-01  1.000000000E+00
 
   5
   s   3
  1.873113696E+01  3.349460434E-02
  2.825394365E+00  2.347269535E-01
  6.401216923E-01  8.137573261E-01
   s   1
  1.612777588E-01  1.000000000E+00
 
   6
   s   6
  3.047524880E+03  1.834737132E-03
  4.573695180E+02  1.403732281E-02
  1.039486850E+02  6.884262227E-02
  2.921015530E+01  2.321844432E-01
  9.286662960E+00  4.679413484E-01
  3.163926960E+00  3.623119853E-01
   s   3
  7.868272350E+00 -1.193324198E-01
  1.881288540E+00 -1.608541517E-01
  5.442492580E-01  1.143456438E+00
   s   1
  1.687144782E-01  1.000000000E+00
   p   3
  7.868272350E+00  6.899906659E-02
  1.881288540E+00  3.164239610E-01
  5.442492580E-01  7.443082909E-01
   p   1
  1.687144782E-01  1.000000000E+00
   d   1
  8.000000000E-01  1.000000000E+00
 
   7
   s   3
  1.873113696E+01  3.349460434E-02
  2.825394365E+00  2.347269535E-01
  6.401216923E-01  8.137573261E-01
   s   1
  1.612777588E-01  1.000000000E+00
 
   8
   s   6
  3.047524880E+03  1.834737132E-03
  4.573695180E+02  1.403732281E-02
  1.039486850E+02  6.884262227E-02
  2.921015530E+01  2.321844432E-01
  9.286662960E+00  4.679413484E-01
  3.163926960E+00  3.623119853E-01
   s   3
  7.868272350E+00 -1.193324198E-01
  1.881288540E+00 -1.608541517E-01
  5.442492580E-01  1.143456438E+00
   s   1
  1.687144782E-01  1.000000000E+00
   p   3
  7.868272350E+00  6.899906659E-02
  1.881288540E+00  3.164239610E-01
  5.442492580E-01  7.443082909E-01
   p   1
  1.687144782E-01  1.000000000E+00
   d   1
  8.000000000E-01  1.000000000E+00
 
   9
   s   3
  1.873113696E+01  3.349460434E-02
  2.825394365E+00  2.347269535E-01
  6.401216923E-01  8.137573261E-01
   s   1
  1.612777588E-01  1.000000000E+00
 
  10
   s   6
  3.047524880E+03  1.834737132E-03
  4.573695180E+02  1.403732281E-02
  1.039486850E+02  6.884262227E-02
  2.921015530E+01  2.321844432E-01
  9.286662960E+00  4.679413484E-01
  3.163926960E+00  3.623119853E-01
   s   3
  7.868272350E+00 -1.193324198E-01
  1.881288540E+00 -1.608541517E-01
  5.442492580E-01  1.143456438E+00
   s   1
  1.687144782E-01  1.000000000E+00
   p   3
  7.868272350E+00  6.899906659E-02
  1.881288540E+00  3.164239610E-01
  5.442492580E-01  7.443082909E-01
   p   1
  1.687144782E-01  1.000000000E+00
   d   1
  8.000000000E-01  1.000000000E+00
 
  11
   s   3
  1.873113696E+01  3.349460434E-02
  2.825394365E+00  2.347269535E-01
  6.401216923E-01  8.137573261E-01
   s   1
  1.612777588E-01  1.000000000E+00
 
  12
   s   3
  1.873113696E+01  3.349460434E-02
  2.825394365E+00  2.347269535E-01
  6.401216923E-01  8.137573261E-01
   s   1
  1.612777588E-01  1.000000000E+00
 
  13
   s   3
  1.873113696E+01  3.349460434E-02
  2.825394365E+00  2.347269535E-01
  6.401216923E-01  8.137573261E-01
   s   1
  1.612777588E-01  1.000000000E+00
 
  14
   s   3
  1.873113696E+01  3.349460434E-02
  2.825394365E+00  2.347269535E-01
  6.401216923E-01  8.137573261E-01
   s   1
  1.612777588E-01  1.000000000E+00
 
  15
   s   3
  1.873113696E+01  3.349460434E-02
  2.825394365E+00  2.347269535E-01
  6.401216923E-01  8.137573261E-01
   s   1
  1.612777588E-01  1.000000000E+00
 
  16
   s   3
  1.873113696E+01  3.349460434E-02
  2.825394365E+00  2.347269535E-01
  6.401216923E-01  8.137573261E-01
   s   1
  1.612777588E-01  1.000000000E+00
 
[MO]
Sym=     1a  
Ene=   -11.3530
Spin= Alpha
Occup=    2.00000
   1         0.33248176
   2         0.00735238
   3         0.00106897
   4        -0.00054919
   5        -0.00106067
   6        -0.00021925
   7        -0.00034297
   8        -0.00066239
   9        -0.00013692
  10        -0.00000000
  11        -0.00000000
  12        -0.00000000
  13        -0.00000000
  14         0.00000000
  15        -0.00000000
  16         0.54861746
  17         0.01168845
  18         0.00127012
  19         0.00065296
  20        -0.00121007
  21        -0.00016398
  22         0.00040777
  23        -0.00075569
  24        -0.00010241
  25         0.00000000
  26         0.00000000
  27        -0.00000000
  28         0.00000000
  29        -0.00000000
  30         0.00000000
  31         0.28472266
  32         0.00620636
  33         0.00081533
  34        -0.00075881
  35        -0.00026518
  36         0.00045944
  37        -0.00047388
  38        -0.00016560
  39         0.00028692
  40        -0.00000000
  41        -0.00000000
  42        -0.00000000
  43         0.00000000
  44         0.00000000
  45        -0.00000000
  46         0.00084955
  47         0.00094856
  48         0.00082769
  49         0.00092416
  50         0.54861788
  51         0.01168845
  52         0.00127012
  53         0.00075796
  54         0.00114803
  55         0.00015831
  56         0.00047334
  57         0.00071694
  58         0.00009886
  59        -0.00000000
  60         0.00000000
  61         0.00000000
  62        -0.00000000
  63         0.00000000
  64        -0.00000000
  65         0.00127643
  66         0.00142520
  67         0.33248449
  68         0.00735244
  69         0.00106897
  70        -0.00045217
  71         0.00110471
  72         0.00022326
  73        -0.00028238
  74         0.00068989
  75         0.00013942
  76        -0.00000000
  77         0.00000000
  78        -0.00000000
  79         0.00000000
  80        -0.00000000
  81         0.00000000
  82         0.00127645
  83         0.00142522
  84         0.28472862
  85         0.00620647
  86         0.00081533
  87        -0.00073629
  88         0.00033090
  89        -0.00045340
  90        -0.00045981
  91         0.00020665
  92        -0.00028315
  93         0.00000000
  94         0.00000000
  95         0.00000000
  96         0.00000000
  97        -0.00000000
  98        -0.00000000
  99         0.00084956
 100         0.00094857
 101         0.00082769
 102         0.00092416
 103         0.00067756
 104         0.00075654
 105         0.00073893
 106         0.00082505
 107         0.00067758
 108         0.00075656
 109         0.00073895
 110         0.00082508
Sym=     2a  
Ene=   -11.3450
Spin= Alpha
Occup=    2.00000
   1         0.17877294
   2         0.00352155
   3         0.00009406
   4         0.00157066
   5        -0.00024549
   6        -0.00026327
   7         0.00098088
   8        -0.00015331
   9        -0.00016441
  10        -0.00000000
  11        -0.00000000
  12        -0.00000000
  13        -0.00000000
  14        -0.00000000
  15        -0.00000000
  16        -0.39556923
  17        -0.00768018
  18        -0.00008352
  19         0.00057781
  20         0.00110807
  21         0.00011441
  22         0.00036084
  23         0.00069199
  24         0.00007145
  25        -0.00000000
  26        -0.00000000
  27        -0.00000000
  28        -0.00000000
  29         0.00000000
  30        -0.00000000
  31         0.55266423
  32         0.01111866
  33         0.00054912
  34        -0.00017883
  35        -0.00079053
  36         0.00053352
  37        -0.00011168
  38        -0.00049368
  39         0.00033318
  40         0.00000000
  41         0.00000000
  42         0.00000000
  43        -0.00000000
  44         0.00000000
  45         0.00000000
  46         0.00037165
  47         0.00041497
  48         0.00037505
  49         0.00041876
  50        -0.39555863
  51        -0.00767995
  52        -0.00008349
  53         0.00047744
  54        -0.00115455
  55        -0.00011866
  56         0.00029816
  57        -0.00072102
  58        -0.00007410
  59        -0.00000000
  60        -0.00000000
  61        -0.00000000
  62        -0.00000000
  63        -0.00000000
  64        -0.00000000
  65        -0.00082932
  66        -0.00092598
  67         0.17881728
  68         0.00352243
  69         0.00009410
  70         0.00158826
  71         0.00010663
  72         0.00025056
  73         0.00099187
  74         0.00006659
  75         0.00015648
  76        -0.00000000
  77         0.00000000
  78         0.00000000
  79         0.00000000
  80        -0.00000000
  81        -0.00000000
  82        -0.00082931
  83        -0.00092597
  84         0.55269751
  85         0.01111929
  86         0.00054911
  87        -0.00011313
  88         0.00080325
  89        -0.00053234
  90        -0.00007065
  91         0.00050163
  92        -0.00033244
  93         0.00000000
  94         0.00000000
  95         0.00000000
  96         0.00000000
  97        -0.00000000
  98        -0.00000000
  99         0.00037175
 100         0.00041507
 101         0.00037513
 102         0.00041886
 103         0.00118862
 104         0.00132716
 105         0.00118493
 106         0.00132303
 107         0.00118870
 108         0.00132724
 109         0.00118502
 110         0.00132313
Sym=     3a  
Ene=   -11.3430
Spin= Alpha
Occup=    2.00000
   1        -0.59812767
   2        -0.01164122
   3        -0.00015776
   4        -0.00000651
   5         0.00032718
   6         0.00017614
   7        -0.00000407
   8         0.00020432
   9         0.00011000
  10         0.00000000
  11         0.00000000
  12         0.00000000
  13         0.00000000
  14         0.00000000
  15        -0.00000000
  16        -0.23777081
  17        -0.00468480
  18        -0.00012631
  19        -0.00098471
  20        -0.00134449
  21        -0.00012255
  22        -0.00061495
  23        -0.00083964
  24        -0.00007653
  25        -0.00000000
  26        -0.00000000
  27        -0.00000000
  28        -0.00000000
  29        -0.00000000
  30         0.00000000
  31        -0.28268994
  32        -0.00554388
  33        -0.00012127
  34         0.00077263
  35        -0.00124556
  36        -0.00011087
  37         0.00048251
  38        -0.00077785
  39        -0.00006924
  40        -0.00000000
  41        -0.00000000
  42        -0.00000000
  43         0.00000000
  44         0.00000000
  45         0.00000000
  46        -0.00120661
  47        -0.00134724
  48        -0.00122698
  49        -0.00136998
  50         0.23779944
  51         0.00468533
  52         0.00012629
  53         0.00086182
  54        -0.00142560
  55        -0.00012996
  56         0.00053821
  57        -0.00089028
  58        -0.00008116
  59        -0.00000000
  60         0.00000000
  61         0.00000000
  62         0.00000000
  63         0.00000000
  64         0.00000000
  65        -0.00051206
  66        -0.00057174
  67         0.59810633
  68         0.01164081
  69         0.00015776
  70         0.00003651
  71         0.00032527
  72         0.00017593
  73         0.00002280
  74         0.00020313
  75         0.00010987
  76         0.00000000
  77         0.00000000
  78         0.00000000
  79        -0.00000000
  80         0.00000000
  81         0.00000000
  82         0.00051213
  83         0.00057181
  84         0.28264777
  85         0.00554303
  86         0.00012123
  87        -0.00087983
  88        -0.00117295
  89        -0.00010415
  90        -0.00054945
  91        -0.00073251
  92        -0.00006504
  93         0.00000000
  94         0.00000000
  95         0.00000000
  96        -0.00000000
  97         0.00000000
  98         0.00000000
  99         0.00120657
 100         0.00134720
 101         0.00122692
 102         0.00136992
 103        -0.00059614
 104        -0.00066563
 105        -0.00054526
 106        -0.00060881
 107         0.00059606
 108         0.00066553
 109         0.00054518
 110         0.00060872
Sym=     4a  
Ene=   -11.3350
Spin= Alpha
Occup=    2.00000
   1        -0.59351338
   2        -0.01031529
   3         0.00121970
   4         0.00016886
   5        -0.00058762
   6        -0.00019396
   7         0.00010545
   8        -0.00036697
   9        -0.00012113
  10        -0.00000000
  11        -0.00000000
  12        -0.00000000
  13         0.00000000
  14         0.00000000
  15        -0.00000000
  16         0.18982828
  17         0.00307990
  18        -0.00063430
  19        -0.00097475
  20        -0.00094204
  21        -0.00010395
  22        -0.00060873
  23        -0.00058830
  24        -0.00006492
  25         0.00000000
  26         0.00000000
  27         0.00000000
  28         0.00000000
  29         0.00000000
  30        -0.00000000
  31         0.32772374
  32         0.00571609
  33        -0.00065096
  34         0.00084147
  35        -0.00102250
  36        -0.00007411
  37         0.00052550
  38        -0.00063855
  39        -0.00004628
  40         0.00000000
  41         0.00000000
  42        -0.00000000
  43        -0.00000000
  44        -0.00000000
  45        -0.00000000
  46        -0.00095267
  47        -0.00106370
  48        -0.00096064
  49        -0.00107260
  50         0.18983622
  51         0.00308003
  52        -0.00063432
  53        -0.00088744
  54         0.00102390
  55         0.00011142
  56        -0.00055421
  57         0.00063943
  58         0.00006958
  59         0.00000000
  60         0.00000000
  61        -0.00000000
  62        -0.00000000
  63        -0.00000000
  64         0.00000000
  65         0.00029676
  66         0.00033134
  67        -0.59351856
  68        -0.01031539
  69         0.00121971
  70         0.00022133
  71         0.00057046
  72         0.00019236
  73         0.00013822
  74         0.00035625
  75         0.00012013
  76        -0.00000000
  77        -0.00000000
  78         0.00000000
  79         0.00000000
  80        -0.00000000
  81         0.00000000
  82         0.00029678
  83         0.00033137
  84         0.32771290
  85         0.00571589
  86        -0.00065096
  87         0.00092856
  88         0.00094470
  89         0.00006695
  90         0.00057988
  91         0.00058996
  92         0.00004181
  93         0.00000000
  94         0.00000000
  95         0.00000000
  96         0.00000000
  97         0.00000000
  98         0.00000000
  99        -0.00095269
 100        -0.00106372
 101        -0.00096064
 102        -0.00107260
 103         0.00053430
 104         0.00059658
 105         0.00051438
 106         0.00057433
 107         0.00053429
 108         0.00059656
 109         0.00051437
 110         0.00057432
Sym=     5a  
Ene=   -11.3330
Spin= Alpha
Occup=    2.00000
   1         0.16428288
   2         0.00274178
   3        -0.00046394
   4        -0.00125884
   5         0.00024591
   6         0.00034755
   7        -0.00078615
   8         0.00015357
   9         0.00021704
  10        -0.00000000
  11         0.00000000
  12        -0.00000000
  13         0.00000000
  14        -0.00000000
  15         0.00000000
  16         0.31160901
  17         0.00535816
  18        -0.00070453
  19         0.00019070
  20         0.00096346
  21         0.00014796
  22         0.00011909
  23         0.00060168
  24         0.00009240
  25        -0.00000000
  26        -0.00000000
  27         0.00000000
  28         0.00000000
  29         0.00000000
  30        -0.00000000
  31        -0.60980353
  32        -0.01033756
  33         0.00154361
  34        -0.00029749
  35        -0.00081520
  36         0.00059240
  37        -0.00018578
  38        -0.00050909
  39         0.00036996
  40        -0.00000000
  41         0.00000000
  42         0.00000000
  43        -0.00000000
  44         0.00000000
  45        -0.00000000
  46         0.00026625
  47         0.00029728
  48         0.00022355
  49         0.00024961
  50        -0.31160148
  51        -0.00535803
  52         0.00070451
  53        -0.00010422
  54         0.00097645
  55         0.00014915
  56        -0.00006509
  57         0.00060979
  58         0.00009314
  59         0.00000000
  60         0.00000000
  61         0.00000000
  62         0.00000000
  63         0.00000000
  64        -0.00000000
  65         0.00054335
  66         0.00060668
  67        -0.16429831
  68        -0.00274205
  69         0.00046396
  70         0.00127831
  71         0.00013435
  72         0.00033732
  73         0.00079831
  74         0.00008390
  75         0.00021066
  76         0.00000000
  77        -0.00000000
  78        -0.00000000
  79        -0.00000000
  80        -0.00000000
  81        -0.00000000
  82        -0.00054335
  83        -0.00060667
  84         0.60979638
  85         0.01033739
  86        -0.00154364
  87         0.00022959
  88        -0.00083838
  89         0.00059029
  90         0.00014338
  91        -0.00052357
  92         0.00036864
  93         0.00000000
  94        -0.00000000
  95         0.00000000
  96        -0.00000000
  97         0.00000000
  98        -0.00000000
  99        -0.00026628
 100        -0.00029731
 101        -0.00022358
 102        -0.00024964
 103        -0.00093890
 104        -0.00104833
 105        -0.00093088
 106        -0.00103938
 107         0.00093889
 108         0.00104832
 109         0.00093088
 110         0.00103938
Sym=     6a  
Ene=   -11.3280
Spin= Alpha
Occup=    2.00000
   1         0.33191425
   2         0.00524282
   3        -0.00126758
   4         0.00061545
   5         0.00060648
   6         0.00015941
   7         0.00038435
   8         0.00037875
   9         0.00009955
  10        -0.00000000
  11        -0.00000000
  12        -0.00000000
  13         0.00000000
  14         0.00000000
  15        -0.00000000
  16        -0.58522823
  17        -0.00942359
  18         0.00203514
  19         0.00040513
  20        -0.00110127
  21        -0.00013352
  22         0.00025300
  23        -0.00068774
  24        -0.00008339
  25        -0.00000000
  26        -0.00000000
  27        -0.00000000
  28         0.00000000
  29        -0.00000000
  30        -0.00000000
  31        -0.20977579
  32        -0.00330927
  33         0.00080590
  34        -0.00034436
  35         0.00002418
  36         0.00033453
  37        -0.00021505
  38         0.00001510
  39         0.00020892
  40         0.00000000
  41         0.00000000
  42         0.00000000
  43        -0.00000000
  44        -0.00000000
  45        -0.00000000
  46         0.00042637
  47         0.00047606
  48         0.00041967
  49         0.00046858
  50         0.58522480
  51         0.00942353
  52        -0.00203513
  53        -0.00050129
  54        -0.00106143
  55        -0.00012989
  56        -0.00031306
  57        -0.00066286
  58        -0.00008111
  59        -0.00000000
  60         0.00000000
  61        -0.00000000
  62         0.00000000
  63         0.00000000
  64        -0.00000000
  65        -0.00089399
  66        -0.00099819
  67        -0.33190920
  68        -0.00524274
  69         0.00126756
  70        -0.00055852
  71         0.00065810
  72         0.00016412
  73        -0.00034880
  74         0.00041098
  75         0.00010249
  76         0.00000000
  77        -0.00000000
  78        -0.00000000
  79         0.00000000
  80         0.00000000
  81         0.00000000
  82         0.00089400
  83         0.00099820
  84         0.20977446
  85         0.00330925
  86        -0.00080590
  87         0.00034785
  88        -0.00000626
  89         0.00033173
  90         0.00021723
  91        -0.00000391
  92         0.00020717
  93        -0.00000000
  94        -0.00000000
  95         0.00000000
  96        -0.00000000
  97         0.00000000
  98        -0.00000000
  99        -0.00042636
 100        -0.00047606
 101        -0.00041965
 102        -0.00046857
 103        -0.00025985
 104        -0.00029013
 105        -0.00028607
 106        -0.00031941
 107         0.00025985
 108         0.00029013
 109         0.00028607
 110         0.00031942
Sym=     7a  
Ene=    -1.8254
Spin= Alpha
Occup=    2.00000
   1        -0.08977516
   2         0.10618030
   3         0.12013845
   4         0.00635222
   5        -0.03717592
   6        -0.00619998
   7         0.00396696
   8        -0.02321634
   9        -0.00387188
  10        -0.00000000
  11         0.00000000
  12         0.00000000
  13         0.00000000
  14        -0.00000000
  15         0.00000000
  16        -0.07657997
  17         0.09154973
  18         0.10356693
  19         0.03719298
  20        -0.01695035
  21        -0.00252679
  22         0.02322700
  23        -0.01058549
  24        -0.00157798
  25        -0.00000000
  26        -0.00000000
  27        -0.00000000
  28        -0.00000000
  29         0.00000000
  30        -0.00000000
  31        -0.10067512
  32         0.11844508
  33         0.13402687
  34        -0.03016023
  35        -0.01822031
  36         0.01496760
  37        -0.01883505
  38        -0.01137857
  39         0.00934726
  40         0.00000000
  41        -0.00000000
  42         0.00000000
  43         0.00000000
  44        -0.00000000
  45        -0.00000000
  46         0.04224629
  47         0.04717017
  48         0.03813090
  49         0.04257513
  50        -0.07657994
  51         0.09154967
  52         0.10356686
  53         0.03855632
  54         0.01361928
  55         0.00222205
  56         0.02407840
  57         0.00850523
  58         0.00138767
  59         0.00000000
  60         0.00000000
  61         0.00000000
  62         0.00000000
  63        -0.00000000
  64         0.00000000
  65         0.02728918
  66         0.03046978
  67        -0.08977564
  68         0.10618084
  69         0.12013906
  70         0.00964063
  71         0.03647259
  72         0.00613504
  73         0.00602057
  74         0.02277712
  75         0.00383133
  76        -0.00000000
  77        -0.00000000
  78        -0.00000000
  79        -0.00000000
  80         0.00000000
  81         0.00000000
  82         0.02728944
  83         0.03047007
  84        -0.10067589
  85         0.11844556
  86         0.13402743
  87        -0.02856431
  88         0.02080231
  89        -0.01473001
  90        -0.01783840
  91         0.01299103
  92        -0.00919888
  93         0.00000000
  94         0.00000000
  95        -0.00000000
  96        -0.00000000
  97         0.00000000
  98         0.00000000
  99         0.04224611
 100         0.04716996
 101         0.03813126
 102         0.04257553
 103         0.04228881
 104         0.04721765
 105         0.05052278
 106         0.05641130
 107         0.04228928
 108         0.04721817
 109         0.05052370
 110         0.05641232
Sym=     8a  
Ene=    -1.4396
Spin= Alpha
Occup=    2.00000
   1         0.11988539
   2        -0.15292749
   3        -0.17282938
   4        -0.00300967
   5        -0.01721479
   6         0.00556089
   7        -0.00187954
   8        -0.01075063
   9         0.00347277
  10        -0.00000000
  11         0.00000000
  12         0.00000000
  13         0.00000000
  14        -0.00000000
  15         0.00000000
  16         0.05123096
  17        -0.06563890
  18        -0.07417628
  19        -0.02984708
  20        -0.06259779
  21        -0.00400569
  22        -0.01863949
  23        -0.03909228
  24        -0.00250155
  25        -0.00000000
  26         0.00000000
  27         0.00000000
  28         0.00000000
  29         0.00000000
  30        -0.00000000
  31         0.05793529
  32        -0.07419465
  33        -0.08384540
  34         0.02111767
  35        -0.06749128
  36        -0.00578690
  37         0.01318797
  38        -0.04214827
  39        -0.00361391
  40        -0.00000000
  41        -0.00000000
  42         0.00000000
  43        -0.00000000
  44        -0.00000000
  45        -0.00000000
  46        -0.07177366
  47        -0.08013900
  48        -0.07906478
  49        -0.08827992
  50        -0.05122732
  51         0.06563415
  52         0.07417090
  53         0.02420412
  54        -0.06497553
  55        -0.00422305
  56         0.01511546
  57        -0.04057718
  58        -0.00263729
  59        -0.00000000
  60         0.00000000
  61        -0.00000000
  62        -0.00000000
  63        -0.00000000
  64         0.00000000
  65        -0.03372962
  66        -0.03766087
  67        -0.11988456
  68         0.15292633
  69         0.17282807
  70         0.00153369
  71        -0.01741549
  72         0.00554208
  73         0.00095779
  74        -0.01087596
  75         0.00346103
  76        -0.00000000
  77        -0.00000000
  78        -0.00000000
  79         0.00000000
  80        -0.00000000
  81        -0.00000000
  82         0.03372759
  83         0.03765861
  84        -0.05793758
  85         0.07419729
  86         0.08384839
  87        -0.02700466
  88        -0.06537462
  89        -0.00559268
  90        -0.01686440
  91        -0.04082642
  92        -0.00349263
  93        -0.00000000
  94        -0.00000000
  95        -0.00000000
  96         0.00000000
  97         0.00000000
  98        -0.00000000
  99         0.07177425
 100         0.08013966
 101         0.07906403
 102         0.08827909
 103        -0.04112178
 104        -0.04591459
 105        -0.02761529
 106        -0.03083390
 107         0.04112335
 108         0.04591634
 109         0.02761623
 110         0.03083495
Sym=     9a  
Ene=    -1.3957
Spin= Alpha
Occup=    2.00000
   1         0.01698755
   2        -0.02337676
   3        -0.02639035
   4         0.07835935
   5         0.00189616
   6        -0.00488505
   7         0.04893537
   8         0.00118415
   9        -0.00305071
  10         0.00000000
  11         0.00000000
  12         0.00000000
  13        -0.00000000
  14        -0.00000000
  15         0.00000000
  16         0.12038290
  17        -0.15655960
  18        -0.17688387
  19         0.03011149
  20         0.03232364
  21         0.00305524
  22         0.01880461
  23         0.02018609
  24         0.00190800
  25         0.00000000
  26         0.00000000
  27         0.00000000
  28         0.00000000
  29         0.00000000
  30         0.00000000
  31        -0.08769278
  32         0.11300070
  33         0.12768744
  34         0.04147994
  35        -0.02482404
  36         0.00882573
  37         0.02590420
  38        -0.01550260
  39         0.00551167
  40         0.00000000
  41         0.00000000
  42         0.00000000
  43         0.00000000
  44         0.00000000
  45         0.00000000
  46        -0.00754875
  47        -0.00842857
  48        -0.01017745
  49        -0.01136365
  50         0.12038520
  51        -0.15656238
  52        -0.17688701
  53         0.02713174
  54        -0.03483833
  55        -0.00328550
  56         0.01694376
  57        -0.02175652
  58        -0.00205179
  59        -0.00000000
  60        -0.00000000