   This run of MOLCAS is using the pymolcas driver

                             OPE
                             OPE          NMOL  CASOP  ENMOLC A   SO
                 OPE        NMOLC        AS  OP EN  MO LC     AS  OP
                OPENM       OL CA        SO  PE NM  OL CA     SOP EN
                OP EN      MO   LC       AS  OP ENMOL  CASO   PENMOL
                OP  EN     MO   LC       AS  OP EN     MO     LC ASO
               OP   E  NMOL  C  AS       OP  EN MO     LC     AS  OP
               OP  E   NMO   LC AS        OPEN  MO     LCASOP EN   M
               O  PEN   MO  LCA  SO
            OPE   NMO   L   CAS    OP
        OPENMOL  CASOP     ENMOL   CASOPE
     OPENMOLCA   SOPENMOLCASOPEN   MOLCASOPE
    OPENMOLCAS   OP           EN   MOL    CAS
    OPENMOLCAS       OP  ENM        O     LCA
    OPENMOLCAS    OPEN  MOLCASO     P  E  NMO
    OPENMOLCAS     OP               E  N  MOL
    OPENMOLCA   SO           PENM   O  L  CAS    OPEN    MO    LCAS
    OPENMOLCA   SOP           ENM   O  L  CAS   OP  EN  MOLC  AS   O
    OPENMOLCA   SOPE           NM      O  LCA   S      OP  EN MO
    OPENMOLC                AS         O  PEN   M      OL  CA  SOPE
    OPENMO        LCASOPE  NMOL        C  ASO   P      ENMOLC     AS
    OPE     NMO      LCA  SO     P     E   NM   OL  CA SO  PE N   MO
          OPENMOLCA            SOPE   NMO        LCAS  O    P  ENMO
     OPENMOLCASOPENMOLCASOPENMOLCASOPENMOLCA
        OPENMOLCASOPENMOLCASOPENMOLCASOPE
            OPENMOLCASOPENMOLCASOPENM
               OPENMOLCASOPENMOLCA        version: 24.02
                   OPENMOLCASO
                       OPE                tag: 428-g03afa2e9a

 OpenMolcas is free software; you can redistribute it and/or modify it
 under the terms of the GNU Lesser General Public License version 2.1.
 OpenMolcas is distributed in the hope that it will be useful, but it
 is provided "as is" and without any express or implied warranties.
 For more details see the full text of the license in the file
 LICENSE or in <http://www.gnu.org/licenses/>.

                 Copyright (C) The OpenMolcas Authors
           For the author list and the recommended citation,
                   consult the file CONTRIBUTORS.md

           *************************************************
           * pymolcas version py2.28                       *
           *   build c4a6d18ded8cb6cad61d2372a9abd97c      *
           *   (after the EMIL interpreter by V. Veryazov) *
           *************************************************

configuration info
------------------
Host name: DESKTOP-ET1S6F4 (Linux)
C Compiler ID: GNU
C flags: -std=gnu99 -fopenmp
Fortran Compiler ID: GNU
Fortran flags: -fno-aggressive-loop-optimizations -cpp -fdefault-integer-8 -fopenmp
Definitions: _WARNING_WORKAROUND_;_MOLCAS_;_I8_;_LINUX_
Parallel: OFF (GA=OFF)


   ----------------------------------------------------------------------
  |
  |           Project: cyclohexene
  |    Submitted from: /home/kenya/molcas_test/0514
  |      Scratch area: /tmp/cyclohexene
  |   Save outputs to: /home/kenya/molcas_test/0514
  |            Molcas: /home/kenya/OpenMolcas/builds/gnu_dev_omp
  |
  | Scratch area is empty
  |
  |    MOLCAS_DRIVER = /home/kenya/OpenMolcas/builds/gnu_dev_omp/pymolcas
  |    MOLCAS_NPROCS = 1
  |    MOLCAS_SOURCE = /home/kenya/OpenMolcas
  | MOLCAS_STRUCTURE = 0
  |
   ----------------------------------------------------------------------

++ ---------   Input file   ---------

&GATEWAY
  Coord = 16
  Angstrom
C         -4.11725        1.52584        0.15337
C         -5.42499        0.77068        0.08961
C         -2.92460        0.68058       -0.32691
H         -3.97653        1.85776        1.20435
H         -4.16583        2.42747       -0.49358
C         -5.48432       -0.56368       -0.07202
H         -6.35011        1.33091        0.18457
C         -4.24846       -1.43069       -0.14600
H         -6.45577       -1.04050       -0.15936
C         -2.98239       -0.69355        0.32434
H         -4.14589       -1.77336       -1.19794
H         -4.37080       -2.32478        0.50168
H         -1.97850        1.20809       -0.07971
H         -2.97020        0.54537       -1.43069
H         -2.08827       -1.30197        0.06970
H         -3.00704       -0.55524        1.42839

  Basis = 6-31G*
  Group = full
  NoCD

>>> DO WHILE

  &SEWARD

  &SCF

  &SLAPAF

>>> END DO

-- ----------------------------------

--- Start Module: gateway at Mon May 20 16:38:10 2024 ---

()()()()()()()()()()()()()()()()()()()()()()()()()()()()()()()()()()()()()()()()()()()()()()()()()()

                                              &GATEWAY

                                   only a single process is used
                       available to each process: 2.0 GB of memory, 1 thread
                                             pid: 13117
()()()()()()()()()()()()()()()()()()()()()()()()()()()()()()()()()()()()()()()()()()()()()()()()()()


++    Symmetry information:
      ---------------------

                    Character Table for C1 

                             E  
                    a        1  x, y, xy, Rz, z, xz, Ry, yz, Rx, I
--


++    Basis set information:
      ----------------------


      Basis set label: C.6-31G**....

      Electronic valence basis set:
      ------------------
      Associated Effective Charge   6.000000 au
      Associated Actual Charge      6.000000 au
      Nuclear Model: Point charge

      Shell  nPrim  nBasis  Cartesian Spherical Contaminant
         s      10       3        X                  
         p       4       2        X                  
         d       1       1        X                  


      Basis set label: H.6-31G....

      Electronic valence basis set:
      ------------------
      Associated Effective Charge   1.000000 au
      Associated Actual Charge      1.000000 au
      Nuclear Model: Point charge

      Shell  nPrim  nBasis  Cartesian Spherical Contaminant
         s       4       2        X                  


      Basis set label: C.6-31G**....

      Electronic valence basis set:
      ------------------
      Associated Effective Charge   6.000000 au
      Associated Actual Charge      6.000000 au
      Nuclear Model: Point charge

      Shell  nPrim  nBasis  Cartesian Spherical Contaminant
         s      10       3        X                  
         p       4       2        X                  
         d       1       1        X                  


      Basis set label: H.6-31G....

      Electronic valence basis set:
      ------------------
      Associated Effective Charge   1.000000 au
      Associated Actual Charge      1.000000 au
      Nuclear Model: Point charge

      Shell  nPrim  nBasis  Cartesian Spherical Contaminant
         s       4       2        X                  


      Basis set label: C.6-31G**....

      Electronic valence basis set:
      ------------------
      Associated Effective Charge   6.000000 au
      Associated Actual Charge      6.000000 au
      Nuclear Model: Point charge

      Shell  nPrim  nBasis  Cartesian Spherical Contaminant
         s      10       3        X                  
         p       4       2        X                  
         d       1       1        X                  


      Basis set label: H.6-31G....

      Electronic valence basis set:
      ------------------
      Associated Effective Charge   1.000000 au
      Associated Actual Charge      1.000000 au
      Nuclear Model: Point charge

      Shell  nPrim  nBasis  Cartesian Spherical Contaminant
         s       4       2        X                  


      Basis set label: C.6-31G**....

      Electronic valence basis set:
      ------------------
      Associated Effective Charge   6.000000 au
      Associated Actual Charge      6.000000 au
      Nuclear Model: Point charge

      Shell  nPrim  nBasis  Cartesian Spherical Contaminant
         s      10       3        X                  
         p       4       2        X                  
         d       1       1        X                  


      Basis set label: H.6-31G....

      Electronic valence basis set:
      ------------------
      Associated Effective Charge   1.000000 au
      Associated Actual Charge      1.000000 au
      Nuclear Model: Point charge

      Shell  nPrim  nBasis  Cartesian Spherical Contaminant
         s       4       2        X                  
--


++    Molecular structure info:
      -------------------------

                    ************************************************ 
                    **** Cartesian Coordinates / Bohr, Angstrom **** 
                    ************************************************ 

     Center  Label                x              y              z                     x              y              z
        1      C1              -7.780475       2.883420       0.289827             -4.117250       1.525840       0.153370
        2      C2             -10.251745       1.456374       0.169338             -5.424990       0.770680       0.089610
        3      C3              -5.526693       1.286110      -0.617770             -2.924600       0.680580      -0.326910
        4      H4              -7.514553       3.510658       2.275892             -3.976530       1.857760       1.204350
        5      H5              -7.872278       4.587253      -0.932731             -4.165830       2.427470      -0.493580
        6      C6             -10.363863      -1.065201      -0.136098             -5.484320      -0.563680      -0.072020
        7      H7             -11.999969       2.515055       0.348787             -6.350110       1.330910       0.184570
        8      C8              -8.028426      -2.703612      -0.275900             -4.248460      -1.430690      -0.146000
        9      H9             -12.199637      -1.966260      -0.301147             -6.455770      -1.040500      -0.159360
       10      C10             -5.635900      -1.310620       0.612914             -2.982390      -0.693550       0.324340
       11      H11             -7.834597      -3.351165      -2.263779             -4.145890      -1.773360      -1.197940
       12      H12             -8.259615      -4.393198       0.948038             -4.370800      -2.324780       0.501680
       13      H13             -3.738823       2.282959      -0.150630             -1.978500       1.208090      -0.079710
       14      H14             -5.612865       1.030600      -2.703612             -2.970200       0.545370      -1.430690
       15      H15             -3.946258      -2.460367       0.131714             -2.088270      -1.301970       0.069700
       16      H16             -5.682482      -1.049252       2.699266             -3.007040      -0.555240       1.428390

                    ************************************************* 
                    **** InterNuclear Distances / Bohr, Angstrom **** 
                    ************************************************* 

     Atom centers         Bohr        Angstrom
    7 H7        2 C2      2.051638        1.085680
    9 H9        6 C6    
    5 H5        1 C1      2.099077        1.110784
   12 H12       8 C8    
   13 H13       3 C3      2.099610        1.111066
   15 H15      10 C10   
    4 H4        1 C1      2.099656        1.111090
   11 H11       8 C8    
   14 H14       3 C3      2.103176        1.112953
   16 H16      10 C10   
    6 C6        2 C2      2.542479        1.345422
    2 C2        1 C1      2.856248        1.511462
    8 C8        6 C6    
   10 C10       3 C3      2.875676        1.521742
    3 C3        1 C1      2.907679        1.538677
   10 C10       8 C8    
    5 H5        4 H4      3.403269        1.800932
   12 H12      11 H11   
   16 H16      15 H15     3.405590        1.802161
   14 H14      13 H13     3.405606        1.802169
    9 H9        2 C2      3.966114        2.098777
    7 H7        6 C6      3.966130        2.098786
    4 H4        2 C2      4.018687        2.126597
   11 H11       6 C6    
   16 H16       3 C3      4.059669        2.148284
   14 H14      10 C10     4.059702        2.148302
    5 H5        3 C3      4.061831        2.149429
   12 H12      10 C10   
    5 H5        2 C2      4.083965        2.161141
   12 H12       6 C6    
   13 H13       1 C1      4.109673        2.174745
   15 H15       8 C8    
   16 H16       8 C8      4.134244        2.187748
   14 H14       1 C1      4.134266        2.187759
   15 H15       3 C3      4.134681        2.187979
   13 H13      10 C10     4.134696        2.187987
    4 H4        3 C3      4.156134        2.199331
   11 H11      10 C10   
    7 H7        1 C1      4.235953        2.241570
    9 H9        8 C8    
    9 H9        7 H7      4.532601        2.398549
   16 H16      12 H12     4.570600        2.418658
   14 H14       5 H5      4.570640        2.418679
   15 H15      11 H11     4.653072        2.462300
   13 H13       4 H4      4.653105        2.462317
    8 C8        3 C3      4.721591        2.498559
   10 C10       1 C1      4.721605        2.498566
    6 C6        1 C1      4.737813        2.507143
    8 C8        2 C2    
   15 H15      13 H13     4.756247        2.516898
    7 H7        5 H5      4.793133        2.536417
   12 H12       9 H9      4.793148        2.536424
    3 C3        2 C2      4.793188        2.536446
   10 C10       6 C6      4.793212        2.536458
   16 H16      13 H13     4.796180        2.538029
   15 H15      14 H14     4.796196        2.538038
   13 H13       5 H5      4.796551        2.538225
   15 H15      12 H12     4.796589        2.538245
   16 H16       4 H4      4.932393        2.610110
   14 H14      11 H11     4.932485        2.610159
   11 H11       9 H9      4.982315        2.636528
    7 H7        4 H4      4.982360        2.636552
   16 H16       1 C1      5.066840        2.681256
   14 H14       8 C8      5.066859        2.681267
    6 C6        3 C3      5.399896        2.857502
   10 C10       2 C2      5.399911        2.857510
   10 C10       4 H4      5.435029        2.876094
   11 H11       3 C3      5.435078        2.876120
   14 H14       2 C2      5.473056        2.896217
   16 H16       6 C6      5.473104        2.896242
    8 C8        1 C1      5.621072        2.974543
--


            Nuclear Potential Energy            236.26584992 au

--- Stop Module: gateway at Mon May 20 16:38:11 2024 /rc=_RC_ALL_IS_WELL_ ---
*** files: xmldump
    saved to directory /home/kenya/molcas_test/0514

--- Start Module: seward at Mon May 20 16:38:11 2024 ---

()()()()()()()()()()()()()()()()()()()()()()()()()()()()()()()()()()()()()()()()()()()()()()()()()()

                                              &SEWARD

                                   only a single process is used
                       available to each process: 2.0 GB of memory, 1 thread
                                             pid: 13121
()()()()()()()()()()()()()()()()()()()()()()()()()()()()()()()()()()()()()()()()()()()()()()()()()()

               SEWARD will generate:
                  Multipole Moment integrals up to order  2
                  Kinetic Energy integrals
                  Nuclear Attraction integrals (point charge)
                  One-Electron Hamiltonian integrals
                  Velocity integrals
                  Orbital angular momentum around (-7.8741  0.0886  0.0068 )
                  Velocity quadrupole around (-7.8741  0.0886  0.0068 )
                  Two-Electron Repulsion integrals

                   Integrals are discarded if absolute value <: 1.00E-14
                   Integral cutoff threshold is set to       <: 1.00E-16

            Nuclear Potential Energy            236.26584992 au


      Basis set specifications :
      Symmetry species         a  
      Basis functions          110


      Input file to MOLDEN was generated!

--- Stop Module: seward at Mon May 20 16:38:19 2024 /rc=_RC_ALL_IS_WELL_ ---
*** files: cyclohexene.GssOrb cyclohexene.guessorb.molden xmldump
    saved to directory /home/kenya/molcas_test/0514
--- Module seward spent 8 seconds ---

*** symbolic link created: INPORB -> cyclohexene.GssOrb
--- Start Module: scf at Mon May 20 16:38:19 2024 ---

()()()()()()()()()()()()()()()()()()()()()()()()()()()()()()()()()()()()()()()()()()()()()()()()()()

                                                &SCF

                                   only a single process is used
                       available to each process: 2.0 GB of memory, 1 thread
                                             pid: 13229
()()()()()()()()()()()()()()()()()()()()()()()()()()()()()()()()()()()()()()()()()()()()()()()()()()

++    Input section:
      --------------

      Header of the integral files:
      
       Integrals generated by Gateway/Seward, Mon May 20 16:38:11 2024


      Cartesian coordinates in Angstrom:
      -----------------------------------------------------
      No.  Label        X            Y            Z        
      -----------------------------------------------------
       1   C1        -4.11725000   1.52584000   0.15337000
       2   C2        -5.42499000   0.77068000   0.08961000
       3   C3        -2.92460000   0.68058000  -0.32691000
       4   H4        -3.97653000   1.85776000   1.20435000
       5   H5        -4.16583000   2.42747000  -0.49358000
       6   C6        -5.48432000  -0.56368000  -0.07202000
       7   H7        -6.35011000   1.33091000   0.18457000
       8   C8        -4.24846000  -1.43069000  -0.14600000
       9   H9        -6.45577000  -1.04050000  -0.15936000
      10   C10       -2.98239000  -0.69355000   0.32434000
      11   H11       -4.14589000  -1.77336000  -1.19794000
      12   H12       -4.37080000  -2.32478000   0.50168000
      13   H13       -1.97850000   1.20809000  -0.07971000
      14   H14       -2.97020000   0.54537000  -1.43069000
      15   H15       -2.08827000  -1.30197000   0.06970000
      16   H16       -3.00704000  -0.55524000   1.42839000
      -----------------------------------------------------
      Nuclear repulsion energy =  236.26584992
--

++    Orbital specifications:
      -----------------------

      Symmetry species               1
                                     a
      Frozen orbitals                0
      Occupied orbitals             23
      Secondary orbitals            87
      Deleted orbitals               0
      Total number of orbitals     110
      Number of basis functions    110
--

      Molecular charge                           0.000

++    Optimization specifications:
      ----------------------------

      SCF Algorithm: Conventional
      Minimized density differences are used
      Number of density matrices in core                 5
      Maximum number of NDDO SCF iterations            400
      Maximum number of HF SCF iterations              400
      Threshold for SCF energy change             1.00E-09
      Threshold for density matrix                1.00E-04
      Threshold for Fock matrix                   1.50E-04
      Threshold for linear dependence             1.00E-09
      Threshold at which DIIS is turned on        1.50E-01
      Maximum depth in the DIIS procedure                5
      Maximum depth in the BFGS Hessian update          30
      Threshold at which QNR/C2DIIS is turned on  7.50E-02
      Threshold for Norm(delta) (QNR/C2DIIS)      1.00E-03
      All orbitals punched on: SCFORB
--

      Input vectors read from INPORB
      Orbital file label: *Guess orbitals


++ Convergence information
                                   SCF        iterations: Energy and convergence statistics

Iter     Tot. SCF        One-elec.       Two-elec.     Energy      Max Dij or  Max Fij      DNorm      TNorm      AccCon     Time
         Energy          Energy          Energy        Change      Delta Norm                                                in Sec.
   1  -232.585792859  -774.672831076   305.821188302   0.00E+00    1.98E-01*   9.18E-02*    7.02E+00   2.76E+02   None         1.
   2  -232.965610446  -784.497736808   315.266276446  -3.80E-01*   7.66E-02*   4.18E-02*    1.55E+00   2.80E+02   EDIIS        1.
   3  -233.003564224  -780.228172435   310.958758295  -3.80E-02*   1.76E-02*   1.48E-02*    6.25E-01   2.78E+02   c2DIIS       1.
   4  -233.013387681  -781.813686649   312.534449053  -9.82E-03*   1.34E-02*   4.11E-03*    1.69E-01   2.79E+02   QNRc2DIIS    1.
   5  -233.013809958  -781.628124412   312.348464539  -4.22E-04*   6.67E-03*   1.35E-03*    2.32E-02   2.79E+02   QNRc2DIIS    1.
   6  -233.013876066  -781.702025885   312.422299904  -6.61E-05*   7.00E-04    2.02E-04*    5.01E-03   2.79E+02   QNRc2DIIS    1.
   7  -233.013877646  -781.689621576   312.409894014  -1.58E-06*   2.07E-04    3.49E-05     1.61E-03   2.79E+02   QNRc2DIIS    1.
   8  -233.013877722  -781.689322736   312.409595099  -7.54E-08*   3.88E-05    7.58E-06     3.95E-04   2.79E+02   QNRc2DIIS    1.
   9  -233.013877724  -781.689458114   312.409730475  -2.41E-09*   1.46E-05    3.22E-06     1.06E-04   2.79E+02   QNRc2DIIS    1.
  10  -233.013877725  -781.689454359   312.409726719  -3.38E-10    4.02E-06    1.14E-06     3.35E-05   2.79E+02   QNRc2DIIS    1.

       Convergence after  10 Macro Iterations
--

 *****************************************************************************************************************************
 *                                                                                                                           *
 *                                             SCF/KS-DFT Program, Final results                                             *
 *                                                                                                                           *
 *                                                                                                                           *
 *                                                                                                                           *
 *                                                       Final Results                                                       *
 *                                                                                                                           *
 *****************************************************************************************************************************

::    Total SCF energy                               -233.0138777246
      One-electron energy                            -781.6894543594
      Two-electron energy                             312.4097267194
      Nuclear repulsion energy                        236.2658499154
      Kinetic energy (interpolated)                   232.5333536122
      Virial theorem                                    1.0020664739
      Total spin, S(S+1)                                0.0000000000
      Total spin, S                                     0.0000000000
      Max non-diagonal density matrix element           0.0000036788
      Max non-diagonal Fock matrix element              0.0000002431


      All orbitals with orbital energies smaller than  E(LUMO)+0.5 are printed

++    Molecular orbitals:
      -------------------

      Title: SCF orbitals

      Molecular orbitals for symmetry species 1: a  

          Orbital            1         2         3         4         5         6         7         8         9        10    
          Energy          -11.2247  -11.2247  -11.2215  -11.2208  -11.2202  -11.2199   -1.1135   -0.9996   -0.9938   -0.8365
          Occ. No.          2.0000    2.0000    2.0000    2.0000    2.0000    2.0000    2.0000    2.0000    2.0000    2.0000

        1 C1     1s         0.7015   -0.6983    0.0668   -0.0555    0.0433    0.0518   -0.0858   -0.0011    0.1240    0.1030
        2 C1     2s         0.0201   -0.0199    0.0018   -0.0018    0.0010    0.0014    0.1585    0.0029   -0.2309   -0.1944
        3 C1     *s        -0.0126    0.0120   -0.0023    0.0050   -0.0030   -0.0043    0.1252   -0.0023   -0.2176   -0.2265
        4 C1     2px       -0.0001    0.0001   -0.0001    0.0000   -0.0001   -0.0000   -0.0033    0.0860    0.0012    0.0129
        5 C1     *px        0.0001   -0.0005    0.0008    0.0012   -0.0010    0.0007   -0.0006    0.0162    0.0010    0.0060
        6 C1     2py       -0.0001    0.0002   -0.0001    0.0000    0.0001   -0.0000   -0.0436   -0.0014    0.0106   -0.0670
        7 C1     *py        0.0013   -0.0008    0.0006   -0.0014    0.0005    0.0014   -0.0077    0.0018   -0.0001   -0.0278
        8 C1     2pz        0.0000   -0.0000   -0.0000   -0.0001   -0.0001   -0.0000   -0.0100   -0.0101    0.0086   -0.0161
        9 C1     *pz        0.0002    0.0000    0.0002   -0.0002    0.0009    0.0004    0.0001   -0.0020   -0.0012   -0.0061
       10 C1     *200      -0.0006    0.0007    0.0001   -0.0002    0.0001    0.0002    0.0038   -0.0009   -0.0032    0.0024
       11 C1     *110       0.0000    0.0000    0.0001    0.0001   -0.0001    0.0001    0.0003   -0.0111    0.0002   -0.0010
       12 C1     *101       0.0000   -0.0000    0.0000    0.0001   -0.0001    0.0000   -0.0013   -0.0029    0.0010   -0.0019
       13 C1     *020      -0.0007    0.0006   -0.0000   -0.0000    0.0000    0.0001    0.0026    0.0003   -0.0023   -0.0017
       14 C1     *011      -0.0001    0.0000    0.0000   -0.0001    0.0000    0.0000    0.0014    0.0014    0.0003    0.0035
       15 C1     *002      -0.0006    0.0006   -0.0000   -0.0001   -0.0000   -0.0000    0.0003    0.0007   -0.0030   -0.0060
       16 C2     1s         0.0695   -0.0482   -0.6997    0.0337    0.0511   -0.7007   -0.0909    0.1147    0.0516   -0.0523
       17 C2     2s         0.0018   -0.0015   -0.0191    0.0008    0.0015   -0.0196    0.1718   -0.2175   -0.0991    0.1000
       18 C2     *s         0.0026   -0.0023    0.0059   -0.0007   -0.0002    0.0138    0.1140   -0.1719   -0.0673    0.1005
       19 C2     2px        0.0000   -0.0000   -0.0001   -0.0001    0.0000   -0.0002    0.0370    0.0204   -0.0498   -0.1006
       20 C2     *px        0.0015   -0.0020    0.0005   -0.0000   -0.0001    0.0021    0.0031    0.0055   -0.0046   -0.0260
       21 C2     2py        0.0001    0.0000   -0.0001    0.0000    0.0000    0.0001   -0.0372    0.0761   -0.0674   -0.1285
       22 C2     *py        0.0005   -0.0011    0.0007   -0.0001   -0.0002   -0.0024   -0.0016    0.0068   -0.0159   -0.0227
       23 C2     2pz        0.0000   -0.0000   -0.0000   -0.0000   -0.0000    0.0000   -0.0053    0.0082   -0.0059   -0.0147
       24 C2     *pz       -0.0001   -0.0001    0.0000   -0.0000    0.0000   -0.0003    0.0000    0.0005   -0.0015   -0.0028
       25 C2     *200      -0.0002    0.0002    0.0008   -0.0000   -0.0001    0.0006    0.0031   -0.0005   -0.0066   -0.0033
       26 C2     *110      -0.0001    0.0002   -0.0000    0.0000    0.0000   -0.0001    0.0017    0.0017   -0.0058   -0.0073
       27 C2     *101      -0.0000    0.0000    0.0000   -0.0000    0.0000   -0.0000   -0.0002    0.0004   -0.0002   -0.0011
       28 C2     *020      -0.0002    0.0002    0.0007   -0.0000   -0.0000    0.0005    0.0045   -0.0069    0.0003    0.0042
       29 C2     *011       0.0000    0.0000   -0.0001    0.0000   -0.0000   -0.0001    0.0021   -0.0031   -0.0006    0.0017
       30 C2     *002      -0.0002    0.0001    0.0010   -0.0001   -0.0001    0.0009   -0.0042    0.0049    0.0028   -0.0018
       31 C3     1s         0.0517   -0.0466    0.0390    0.7021   -0.7002   -0.0478   -0.0873   -0.1017    0.0601   -0.0547
       32 C3     2s         0.0013   -0.0016    0.0012    0.0202   -0.0199   -0.0014    0.1604    0.1888   -0.1110    0.1028
       33 C3     *s         0.0027   -0.0009   -0.0003   -0.0099    0.0150    0.0023    0.1255    0.1737   -0.1049    0.1175
       34 C3     2px       -0.0000    0.0001   -0.0001   -0.0002    0.0001   -0.0001   -0.0351    0.0111    0.0387    0.0735
       35 C3     *px       -0.0016    0.0004    0.0002    0.0012   -0.0009   -0.0003   -0.0072    0.0032    0.0079    0.0219
       36 C3     2py        0.0002    0.0000   -0.0000   -0.0002   -0.0000    0.0000   -0.0189   -0.0419   -0.0689   -0.0876
       37 C3     *py        0.0003   -0.0012    0.0001   -0.0010   -0.0016    0.0000   -0.0036   -0.0067   -0.0132   -0.0241
       38 C3     2pz        0.0000   -0.0000   -0.0000    0.0001   -0.0000   -0.0000    0.0224    0.0186   -0.0066   -0.0040
       39 C3     *pz        0.0002   -0.0003    0.0002   -0.0001    0.0009    0.0003    0.0015    0.0020   -0.0000   -0.0049
       40 C3     *200      -0.0002    0.0001   -0.0001   -0.0007    0.0006    0.0000    0.0022    0.0002   -0.0048   -0.0022
       41 C3     *110       0.0001   -0.0001    0.0000    0.0000   -0.0000   -0.0000   -0.0012    0.0025    0.0053    0.0077
       42 C3     *101       0.0001   -0.0001    0.0000    0.0000   -0.0000   -0.0000   -0.0021    0.0009    0.0025    0.0047
       43 C3     *020      -0.0002    0.0001   -0.0001   -0.0008    0.0005    0.0000    0.0033    0.0044    0.0015    0.0019
       44 C3     *011      -0.0000    0.0000   -0.0000    0.0001    0.0001   -0.0000   -0.0013   -0.0030   -0.0054   -0.0056
       45 C3     *002      -0.0002    0.0001   -0.0000   -0.0007    0.0006    0.0000    0.0009    0.0024   -0.0007    0.0026
       46 H4     1s         0.0002   -0.0001    0.0001   -0.0002    0.0001    0.0002    0.0415    0.0017   -0.0748   -0.0920
       47 H4     *s         0.0019   -0.0019   -0.0002   -0.0004   -0.0003   -0.0003    0.0039    0.0025   -0.0149   -0.0346
       48 H5     1s         0.0002   -0.0001    0.0001   -0.0001    0.0001    0.0001    0.0392    0.0010   -0.0782   -0.0977
       49 H5     *s         0.0016   -0.0017   -0.0000    0.0001    0.0005    0.0000    0.0048    0.0003   -0.0181   -0.0371
       50 C6     1s         0.0691    0.0487   -0.6995    0.0337   -0.0511    0.7009   -0.0909    0.1147   -0.0516   -0.0523
       51 C6     2s         0.0018    0.0015   -0.0191    0.0008   -0.0015    0.0196    0.1718   -0.2175    0.0992    0.1001
       52 C6     *s         0.0026    0.0023    0.0059   -0.0007    0.0002   -0.0138    0.1140   -0.1719    0.0673    0.1005
       53 C6     2px       -0.0000    0.0000   -0.0001   -0.0001   -0.0000    0.0002    0.0401    0.0136    0.0437   -0.0889
       54 C6     *px        0.0014    0.0019    0.0005    0.0000    0.0001   -0.0023    0.0032    0.0049    0.0032   -0.0239
       55 C6     2py       -0.0001    0.0000    0.0002    0.0000    0.0000    0.0001    0.0338   -0.0776   -0.0715    0.1368
       56 C6     *py       -0.0006   -0.0013   -0.0008    0.0001   -0.0002   -0.0022    0.0013   -0.0072   -0.0163    0.0249
       57 C6     2pz       -0.0000   -0.0000    0.0000    0.0000   -0.0000    0.0000    0.0050   -0.0084   -0.0063    0.0155
       58 C6     *pz        0.0001   -0.0001   -0.0001    0.0000    0.0000   -0.0003   -0.0001   -0.0006   -0.0015    0.0030
       59 C6     *200      -0.0002   -0.0002    0.0008   -0.0000    0.0001   -0.0006    0.0029   -0.0007    0.0060   -0.0026
       60 C6     *110       0.0001    0.0002   -0.0000   -0.0000    0.0000   -0.0001   -0.0014   -0.0028   -0.0069    0.0085
       61 C6     *101       0.0000    0.0000   -0.0000    0.0000    0.0000   -0.0000    0.0003   -0.0006   -0.0002    0.0013
       62 C6     *020      -0.0002   -0.0002    0.0007   -0.0000    0.0000   -0.0005    0.0047   -0.0067    0.0003    0.0035
       63 C6     *011       0.0000   -0.0000   -0.0001    0.0000    0.0000    0.0001    0.0021   -0.0030    0.0007    0.0015
       64 C6     *002      -0.0002   -0.0001    0.0010   -0.0001    0.0001   -0.0009   -0.0042    0.0049   -0.0028   -0.0018
       65 H7     1s        -0.0001    0.0000    0.0001    0.0000   -0.0000    0.0001    0.0374   -0.0677   -0.0328    0.0483
       66 H7     *s         0.0004   -0.0002   -0.0013    0.0003    0.0000   -0.0009    0.0035   -0.0151   -0.0072    0.0179
       67 C8     1s         0.6962    0.7036    0.0667   -0.0553   -0.0434   -0.0519   -0.0858   -0.0011   -0.1240    0.1030
       68 C8     2s         0.0200    0.0201    0.0018   -0.0018   -0.0010   -0.0014    0.1585    0.0029    0.2309   -0.1944
       69 C8     *s        -0.0125   -0.0121   -0.0023    0.0050    0.0030    0.0043    0.1252   -0.0022    0.2176   -0.2265
       70 C8     2px       -0.0001   -0.0000   -0.0001    0.0000    0.0001    0.0000    0.0006    0.0859   -0.0002    0.0189
       71 C8     *px        0.0000    0.0004    0.0007    0.0013    0.0011   -0.0006    0.0001    0.0160   -0.0010    0.0085
       72 C8     2py        0.0001    0.0002    0.0001   -0.0000    0.0001   -0.0000    0.0437   -0.0062    0.0107    0.0657
       73 C8     *py       -0.0013   -0.0008   -0.0006    0.0013    0.0004    0.0015    0.0077   -0.0032   -0.0000    0.0272
       74 C8     2pz       -0.0000   -0.0000    0.0000    0.0001   -0.0001   -0.0000    0.0100    0.0094    0.0086    0.0160
       75 C8     *pz       -0.0002   -0.0000   -0.0002    0.0001    0.0009    0.0004   -0.0001    0.0019   -0.0012    0.0061
       76 C8     *200      -0.0006   -0.0007    0.0001   -0.0002   -0.0001   -0.0002    0.0038    0.0001    0.0032    0.0025
       77 C8     *110      -0.0000    0.0000   -0.0001   -0.0000   -0.0001    0.0002   -0.0005    0.0111    0.0000    0.0003
       78 C8     *101      -0.0000   -0.0000   -0.0000   -0.0001   -0.0001    0.0000    0.0014    0.0030    0.0009    0.0021
       79 C8     *020      -0.0007   -0.0006   -0.0000   -0.0000   -0.0000   -0.0001    0.0027   -0.0007    0.0023   -0.0017
       80 C8     *011      -0.0000   -0.0000    0.0000   -0.0000   -0.0000   -0.0000    0.0013    0.0010   -0.0004    0.0033
       81 C8     *002      -0.0006   -0.0006   -0.0000   -0.0001    0.0000    0.0000    0.0003    0.0007    0.0029   -0.0060
       82 H9     1s        -0.0001   -0.0000    0.0001    0.0000    0.0000   -0.0001    0.0374   -0.0677    0.0328    0.0483
       83 H9     *s         0.0004    0.0002   -0.0013    0.0003   -0.0000    0.0009    0.0035   -0.0151    0.0072    0.0179
       84 C10    1s         0.0514    0.0470    0.0389    0.7002    0.7021    0.0479   -0.0873   -0.1017   -0.0601   -0.0547
       85 C10    2s         0.0013    0.0016    0.0012    0.0201    0.0199    0.0014    0.1604    0.1889    0.1109    0.1028
       86 C10    *s         0.0027    0.0009   -0.0003   -0.0099   -0.0151   -0.0023    0.1255    0.1738    0.1049    0.1175
       87 C10    2px       -0.0000   -0.0001   -0.0001   -0.0001   -0.0001    0.0001   -0.0335    0.0145   -0.0447    0.0809
       88 C10    *px       -0.0016   -0.0006    0.0002    0.0013    0.0007    0.0003   -0.0069    0.0038   -0.0091    0.0240
       89 C10    2py       -0.0002    0.0000    0.0000    0.0002   -0.0000    0.0000    0.0220    0.0408   -0.0652    0.0808
       90 C10    *py       -0.0002   -0.0011   -0.0001    0.0008   -0.0017   -0.0000    0.0042    0.0064   -0.0125    0.0221
       91 C10    2pz       -0.0000   -0.0000    0.0000   -0.0001   -0.0000   -0.0000   -0.0221   -0.0187   -0.0063    0.0034
       92 C10    *pz       -0.0002   -0.0003   -0.0002    0.0001    0.0009    0.0003   -0.0015   -0.0021    0.0001    0.0047
       93 C10    *200      -0.0002   -0.0001   -0.0001   -0.0007   -0.0006   -0.0000    0.0024    0.0000    0.0053   -0.0029
       94 C10    *110      -0.0001   -0.0001   -0.0000   -0.0001    0.0000   -0.0000    0.0013   -0.0018    0.0042   -0.0069
       95 C10    *101      -0.0001   -0.0001   -0.0000   -0.0000   -0.0000   -0.0000    0.0020   -0.0012    0.0029   -0.0051
       96 C10    *020      -0.0002   -0.0001   -0.0001   -0.0008   -0.0005   -0.0000    0.0032    0.0046   -0.0019    0.0025
       97 C10    *011      -0.0000   -0.0000   -0.0000    0.0001   -0.0001    0.0000   -0.0015   -0.0028    0.0051   -0.0051
       98 C10    *002      -0.0002   -0.0001   -0.0000   -0.0007   -0.0006   -0.0000    0.0009    0.0024    0.0007    0.0027
       99 H11    1s         0.0002    0.0001    0.0001   -0.0002   -0.0001   -0.0002    0.0415    0.0017    0.0748   -0.0920
      100 H11    *s         0.0018    0.0019   -0.0002   -0.0004    0.0003    0.0003    0.0039    0.0025    0.0149   -0.0346
      101 H12    1s         0.0002    0.0001    0.0001   -0.0001   -0.0001   -0.0001    0.0392    0.0011    0.0782   -0.0977
      102 H12    *s         0.0016    0.0017   -0.0000    0.0001   -0.0005   -0.0000    0.0048    0.0003    0.0181   -0.0371
      103 H13    1s        -0.0001    0.0001   -0.0000    0.0000   -0.0002   -0.0001    0.0385    0.0626   -0.0389    0.0500
      104 H13    *s         0.0004    0.0003   -0.0001    0.0015   -0.0017   -0.0003    0.0055    0.0138   -0.0096    0.0202
      105 H14    1s        -0.0002    0.0000    0.0001    0.0001   -0.0003   -0.0000    0.0443    0.0585   -0.0323    0.0449
      106 H14    *s         0.0001   -0.0003    0.0001    0.0018   -0.0019   -0.0001    0.0043    0.0122   -0.0058    0.0147
      107 H15    1s        -0.0001   -0.0001   -0.0000    0.0000    0.0002    0.0001    0.0385    0.0627    0.0389    0.0500
      108 H15    *s         0.0004   -0.0003   -0.0001    0.0015    0.0017    0.0003    0.0055    0.0138    0.0096    0.0202
      109 H16    1s        -0.0002   -0.0000    0.0001    0.0001    0.0003    0.0000    0.0443    0.0585    0.0323    0.0449
      110 H16    *s         0.0001    0.0003    0.0001    0.0018    0.0019    0.0001    0.0043    0.0122    0.0058    0.0147

          Orbital           11        12        13        14        15        16        17        18        19        20    
          Energy           -0.8085   -0.6938   -0.6600   -0.6079   -0.5809   -0.5590   -0.5334   -0.5279   -0.5157   -0.4636
          Occ. No.          2.0000    2.0000    2.0000    2.0000    2.0000    2.0000    2.0000    2.0000    2.0000    2.0000

        1 C1     1s        -0.0211   -0.0448   -0.0026    0.0283    0.0018   -0.0054    0.0060   -0.0098    0.0194    0.0089
        2 C1     2s         0.0386    0.0831    0.0017   -0.0512   -0.0013    0.0053   -0.0109    0.0178   -0.0424   -0.0188
        3 C1     *s         0.0623    0.1183    0.0165   -0.0918   -0.0131    0.0289   -0.0200    0.0271   -0.0523   -0.0266
        4 C1     2px       -0.1354    0.0957    0.0163    0.0467    0.0286    0.1042   -0.2511   -0.0573    0.0122   -0.0196
        5 C1     *px       -0.0396    0.0362    0.0064    0.0232    0.0113    0.0522   -0.1225   -0.0258    0.0018   -0.0040
        6 C1     2py        0.0157    0.0640    0.1661   -0.1102    0.0405    0.0651    0.0008   -0.0742    0.2739    0.0224
        7 C1     *py       -0.0016    0.0294    0.0714   -0.0560    0.0244    0.0296   -0.0002   -0.0417    0.1508    0.0004
        8 C1     2pz        0.0490    0.0848    0.0091    0.1403   -0.2590    0.0524   -0.0257    0.2091    0.0953    0.1439
        9 C1     *pz        0.0177    0.0377    0.0018    0.0708   -0.1369    0.0256   -0.0179    0.1278    0.0506    0.0921
       10 C1     *200       0.0002   -0.0059   -0.0013    0.0056    0.0003   -0.0032    0.0040   -0.0015   -0.0081   -0.0034
       11 C1     *110       0.0110   -0.0049   -0.0031   -0.0007   -0.0034    0.0020    0.0161    0.0068   -0.0002    0.0051
       12 C1     *101       0.0052    0.0026    0.0013   -0.0012   -0.0047    0.0007    0.0035   -0.0017    0.0034   -0.0020
       13 C1     *020      -0.0002    0.0010   -0.0015   -0.0058    0.0053    0.0002   -0.0007   -0.0051    0.0010   -0.0044
       14 C1     *011      -0.0024   -0.0001   -0.0063    0.0095   -0.0130    0.0012   -0.0056    0.0144   -0.0064    0.0100
       15 C1     *002       0.0007    0.0063    0.0045   -0.0007   -0.0059    0.0040   -0.0036    0.0065    0.0093    0.0085
       16 C2     1s        -0.0679    0.0752   -0.0012   -0.0326   -0.0015   -0.0126   -0.0163    0.0037    0.0160    0.0003
       17 C2     2s         0.1333   -0.1500    0.0002    0.0632    0.0035    0.0260    0.0332   -0.0076   -0.0363   -0.0006
       18 C2     *s         0.1157   -0.1511    0.0192    0.0844    0.0013    0.0030    0.0474   -0.0047   -0.0257    0.0033
       19 C2     2px        0.0054    0.0629   -0.2032   -0.0696   -0.0038    0.0348    0.2129    0.0931   -0.1624   -0.0008
       20 C2     *px       -0.0114    0.0402   -0.0797   -0.0332    0.0003    0.0231    0.0978    0.0511   -0.0768   -0.0073
       21 C2     2py        0.0939   -0.1060    0.1279    0.0329   -0.0579   -0.3008    0.1011   -0.0218   -0.0057   -0.0333
       22 C2     *py        0.0370   -0.0606    0.0491    0.0252   -0.0217   -0.1209    0.0363   -0.0228   -0.0081   -0.0090
       23 C2     2pz        0.0225    0.0101    0.0177    0.0712   -0.0434   -0.0303    0.0043    0.0957    0.0452    0.0212
       24 C2     *pz        0.0089    0.0030    0.0066    0.0370   -0.0131   -0.0132    0.0009    0.0525    0.0259    0.0099
       25 C2     *200       0.0059   -0.0068    0.0041    0.0038   -0.0020   -0.0109   -0.0001   -0.0007   -0.0035   -0.0017
       26 C2     *110      -0.0011    0.0111   -0.0049   -0.0110    0.0005    0.0043    0.0071    0.0098   -0.0133    0.0004
       27 C2     *101       0.0004    0.0037   -0.0009    0.0016   -0.0045    0.0020    0.0004    0.0049   -0.0000    0.0029
       28 C2     *020       0.0002    0.0008   -0.0002   -0.0012    0.0018    0.0057    0.0001   -0.0005    0.0041    0.0003
       29 C2     *011       0.0005   -0.0016    0.0001   -0.0016   -0.0046    0.0020   -0.0011   -0.0030   -0.0010    0.0032
       30 C2     *002      -0.0031    0.0031   -0.0002   -0.0017   -0.0005    0.0005   -0.0007   -0.0001    0.0003    0.0013
       31 C3     1s         0.1005    0.0357   -0.0055   -0.0308   -0.0012    0.0133    0.0085   -0.0072    0.0103    0.0112
       32 C3     2s        -0.1875   -0.0650    0.0100    0.0565   -0.0019   -0.0247   -0.0187    0.0098   -0.0226   -0.0259
       33 C3     *s        -0.2392   -0.1043    0.0164    0.0979    0.0116   -0.0420   -0.0165    0.0403   -0.0235   -0.0329
       34 C3     2px       -0.0264   -0.0305    0.1446    0.1002   -0.0632    0.1151    0.2172   -0.0311    0.1517   -0.0071
       35 C3     *px       -0.0087   -0.0069    0.0676    0.0517   -0.0324    0.0674    0.1154   -0.0291    0.0785   -0.0098
       36 C3     2py       -0.0815    0.0330    0.0658    0.0892    0.1245    0.1720   -0.0235   -0.0881   -0.0399    0.0485
       37 C3     *py       -0.0240    0.0166    0.0312    0.0412    0.0518    0.0854   -0.0057   -0.0523   -0.0115    0.0180
       38 C3     2pz        0.0643    0.1443   -0.0175    0.1416   -0.1363    0.0287   -0.0498   -0.1637   -0.0820   -0.2868
       39 C3     *pz        0.0210    0.0619   -0.0028    0.0717   -0.0698    0.0230   -0.0215   -0.0971   -0.0431   -0.1780
       40 C3     *200      -0.0037    0.0011    0.0015    0.0062    0.0009    0.0065    0.0033   -0.0054   -0.0039   -0.0062
       41 C3     *110      -0.0043   -0.0056    0.0034    0.0110   -0.0048    0.0034    0.0089   -0.0018    0.0126   -0.0000
       42 C3     *101      -0.0029   -0.0044    0.0066   -0.0001    0.0016    0.0035    0.0098   -0.0033    0.0051    0.0007
       43 C3     *020       0.0033    0.0025    0.0007   -0.0024   -0.0044   -0.0006   -0.0024   -0.0026    0.0025   -0.0100
       44 C3     *011      -0.0083   -0.0032    0.0031    0.0009    0.0029    0.0089   -0.0024    0.0053    0.0019    0.0063
       45 C3     *002      -0.0043   -0.0053    0.0003   -0.0035    0.0041   -0.0044    0.0007    0.0083    0.0025    0.0183
       46 H4     1s         0.0321    0.1010    0.0375    0.0395   -0.1454    0.0585   -0.0462    0.1224    0.0994    0.1013
       47 H4     *s         0.0131    0.0598    0.0270    0.0333   -0.1087    0.0465   -0.0386    0.0977    0.0927    0.1122
       48 H5     1s         0.0115    0.0371    0.0768   -0.1323    0.1147    0.0164    0.0121   -0.1118    0.0963   -0.0568
       49 H5     *s         0.0065    0.0193    0.0514   -0.0935    0.0878    0.0111    0.0120   -0.0926    0.0887   -0.0490
       50 C6     1s         0.0679   -0.0752   -0.0012    0.0326   -0.0015   -0.0126   -0.0163   -0.0037   -0.0160    0.0003
       51 C6     2s        -0.1333    0.1500    0.0002   -0.0632    0.0035    0.0260    0.0332    0.0076    0.0363   -0.0006
       52 C6     *s        -0.1157    0.1511    0.0192   -0.0844    0.0013    0.0030    0.0474    0.0047    0.0257    0.0033
       53 C6     2px        0.0030   -0.0719   -0.2138    0.0727    0.0017    0.0613    0.2031   -0.0939    0.1616    0.0019
       54 C6     *px        0.0147   -0.0453   -0.0837    0.0355    0.0023    0.0338    0.0943   -0.0525    0.0760   -0.0065
       55 C6     2py        0.0940   -0.1001   -0.1096    0.0266    0.0580    0.2966   -0.1194   -0.0136   -0.0200    0.0333
       56 C6     *py        0.0359   -0.0568   -0.0419    0.0222    0.0215    0.1184   -0.0447   -0.0182   -0.0148    0.0096
       57 C6     2pz        0.0225    0.0107   -0.0160    0.0706    0.0434    0.0299   -0.0060    0.0965    0.0439   -0.0212
       58 C6     *pz        0.0088    0.0033   -0.0059    0.0367    0.0131    0.0130   -0.0017    0.0529    0.0253   -0.0099
       59 C6     *200      -0.0060    0.0078    0.0045   -0.0047   -0.0020   -0.0112   -0.0007    0.0016    0.0023   -0.0018
       60 C6     *110      -0.0001    0.0096    0.0041   -0.0100    0.0002   -0.0013   -0.0069    0.0097   -0.0144   -0.0001
       61 C6     *101       0.0005    0.0036    0.0009    0.0018    0.0041   -0.0016   -0.0005    0.0051    0.0000   -0.0025
       62 C6     *020      -0.0001   -0.0017   -0.0006    0.0021    0.0018    0.0060    0.0007   -0.0004   -0.0029    0.0003
       63 C6     *011      -0.0006    0.0012   -0.0000    0.0016   -0.0050    0.0022   -0.0010    0.0025    0.0012    0.0035
       64 C6     *002       0.0031   -0.0032   -0.0003    0.0017   -0.0005    0.0005   -0.0007    0.0000   -0.0003    0.0014
       65 H7     1s         0.0780   -0.1308    0.1367    0.0853   -0.0180   -0.1116   -0.0661   -0.0621    0.0773   -0.0121
       66 H7     *s         0.0300   -0.0683    0.0894    0.0561   -0.0141   -0.0906   -0.0540   -0.0495    0.0695   -0.0195
       67 C8     1s         0.0211    0.0448   -0.0026   -0.0283    0.0018   -0.0054    0.0060    0.0098   -0.0194    0.0089
       68 C8     2s        -0.0386   -0.0831    0.0017    0.0512   -0.0013    0.0053   -0.0109   -0.0178    0.0424   -0.0188
       69 C8     *s        -0.0623   -0.1183    0.0165    0.0918   -0.0131    0.0289   -0.0200   -0.0271    0.0523   -0.0266
       70 C8     2px        0.1366   -0.0890    0.0016   -0.0551    0.0270    0.0977   -0.2500    0.0523    0.0126   -0.0227
       71 C8     *px        0.0394   -0.0332    0.0001   -0.0275    0.0102    0.0492   -0.1219    0.0231    0.0119   -0.0048
       72 C8     2py        0.0038    0.0721   -0.1669   -0.1058   -0.0429   -0.0739    0.0213   -0.0790    0.2739   -0.0205
       73 C8     *py       -0.0050    0.0325   -0.0717   -0.0537   -0.0253   -0.0340    0.0110   -0.0439    0.1504   -0.0000
       74 C8     2pz        0.0479    0.0856   -0.0092    0.1408    0.2588   -0.0532    0.0277    0.2086    0.0953   -0.1437
       75 C8     *pz        0.0174    0.0379   -0.0018    0.0710    0.1368   -0.0260    0.0189    0.1276    0.0505   -0.0921
       76 C8     *200       0.0008    0.0055   -0.0011   -0.0056    0.0007   -0.0034    0.0026    0.0021    0.0080   -0.0038
       77 C8     *110       0.0109   -0.0061    0.0029    0.0013    0.0041   -0.0014   -0.0168    0.0072   -0.0018   -0.0051
       78 C8     *101       0.0054    0.0024   -0.0018   -0.0019    0.0035   -0.0004   -0.0041   -0.0031    0.0037    0.0031
       79 C8     *020      -0.0008   -0.0005   -0.0017    0.0058    0.0050    0.0004    0.0008    0.0044   -0.0009   -0.0040
       80 C8     *011       0.0018   -0.0001   -0.0062   -0.0094   -0.0134    0.0013   -0.0052   -0.0142    0.0061    0.0098
       81 C8     *002      -0.0008   -0.0063    0.0045    0.0007   -0.0059    0.0040   -0.0036   -0.0065   -0.0093    0.0085
       82 H9     1s        -0.0780    0.1308    0.1367   -0.0853   -0.0180   -0.1116   -0.0661    0.0621   -0.0773   -0.0121
       83 H9     *s        -0.0300    0.0683    0.0894   -0.0561   -0.0141   -0.0906   -0.0540    0.0495   -0.0695   -0.0195
       84 C10    1s        -0.1005   -0.0357   -0.0055    0.0308   -0.0012    0.0133    0.0085    0.0072   -0.0103    0.0112
       85 C10    2s         0.1875    0.0650    0.0100   -0.0565   -0.0019   -0.0247   -0.0187   -0.0098    0.0226   -0.0259
       86 C10    *s         0.2392    0.1043    0.0164   -0.0979    0.0116   -0.0420   -0.0165   -0.0403    0.0235   -0.0329
       87 C10    2px        0.0196    0.0344    0.1385   -0.0908   -0.0728    0.0993    0.2188    0.0220   -0.1552   -0.0090
       88 C10    *px        0.0068    0.0088    0.0646   -0.0473   -0.0362    0.0595    0.1157    0.0236   -0.0795   -0.0099
       89 C10    2py       -0.0835    0.0301   -0.0783    0.0976   -0.1185   -0.1815    0.0044   -0.0904   -0.0264   -0.0478
       90 C10    *py       -0.0247    0.0159   -0.0370    0.0456   -0.0488   -0.0909   -0.0045   -0.0546   -0.0046   -0.0171
       91 C10    2pz        0.0641    0.1440    0.0164    0.1424    0.1368   -0.0295    0.0480   -0.1640   -0.0808    0.2869
       92 C10    *pz        0.0210    0.0618    0.0023    0.0721    0.0700   -0.0235    0.0206   -0.0973   -0.0425    0.1781
       93 C10    *200       0.0032   -0.0016    0.0012   -0.0052    0.0013    0.0061    0.0024    0.0052    0.0050   -0.0062
       94 C10    *110      -0.0054   -0.0058   -0.0034    0.0123    0.0038   -0.0045   -0.0098   -0.0023    0.0113   -0.0006
       95 C10    *101      -0.0021   -0.0040   -0.0063   -0.0001   -0.0013   -0.0029   -0.0100   -0.0040    0.0048    0.0002
       96 C10    *020      -0.0029   -0.0020    0.0010    0.0013   -0.0048   -0.0003   -0.0016    0.0027   -0.0036   -0.0100
       97 C10    *011       0.0086    0.0036    0.0037   -0.0009    0.0030    0.0092   -0.0015   -0.0050   -0.0024    0.0063
       98 C10    *002       0.0043    0.0053    0.0004    0.0035    0.0041   -0.0044    0.0008   -0.0083   -0.0026    0.0183
       99 H11    1s        -0.0321   -0.1010    0.0376   -0.0395   -0.1454    0.0585   -0.0462   -0.1224   -0.0994    0.1013
      100 H11    *s        -0.0131   -0.0598    0.0270   -0.0333   -0.1087    0.0465   -0.0386   -0.0977   -0.0927    0.1122
      101 H12    1s        -0.0115   -0.0370    0.0767    0.1323    0.1147    0.0164    0.0121    0.1118   -0.0963   -0.0568
      102 H12    *s        -0.0065   -0.0193    0.0514    0.0935    0.0877    0.0111    0.0120    0.0926   -0.0886   -0.0490
      103 H13    1s        -0.0992   -0.0186    0.0917    0.1266   -0.0161    0.1093    0.1016   -0.0649    0.0545   -0.0489
      104 H13    *s        -0.0417   -0.0123    0.0585    0.0897   -0.0113    0.0882    0.0870   -0.0513    0.0494   -0.0437
      105 H14    1s        -0.1026   -0.1122    0.0072   -0.0690    0.0753   -0.0454    0.0199    0.1208    0.0435    0.2030
      106 H14    *s        -0.0437   -0.0651    0.0102   -0.0538    0.0545   -0.0296    0.0190    0.0929    0.0382    0.2115
      107 H15    1s         0.0992    0.0187    0.0917   -0.1266   -0.0161    0.1093    0.1016    0.0649   -0.0545   -0.0489
      108 H15    *s         0.0417    0.0123    0.0585   -0.0897   -0.0113    0.0882    0.0870    0.0513   -0.0494   -0.0437
      109 H16    1s         0.1026    0.1122    0.0072    0.0690    0.0753   -0.0454    0.0199   -0.1208   -0.0436    0.2030
      110 H16    *s         0.0437    0.0651    0.0102    0.0538    0.0545   -0.0296    0.0190   -0.0929   -0.0383    0.2115

          Orbital           21        22        23        24        25        26        27        28        29        30    
          Energy           -0.4423   -0.4325   -0.3344    0.1902    0.2300    0.2708    0.2814    0.2878    0.3162    0.3164
          Occ. No.          2.0000    2.0000    2.0000    0.0000    0.0000    0.0000    0.0000    0.0000    0.0000    0.0000

        1 C1     1s         0.0087    0.0034   -0.0027    0.0028    0.0527   -0.0445    0.0636    0.0072   -0.0147    0.0779
        2 C1     2s        -0.0226   -0.0018    0.0026   -0.0047   -0.0428    0.0037   -0.0368   -0.0086    0.0089   -0.0304
        3 C1     *s        -0.0176   -0.0375    0.0480   -0.0520   -0.8495    1.0250   -1.2288   -0.1483    0.2394   -1.6316
        4 C1     2px       -0.0526   -0.2507   -0.0067    0.0034    0.0144    0.0331   -0.0048    0.0033    0.0154    0.0304
        5 C1     *px       -0.0305   -0.1415   -0.0052    0.0556    0.0772    0.0583    0.0162    0.2304    0.2609   -0.1183
        6 C1     2py        0.2182    0.0218   -0.0001   -0.0185   -0.0896    0.0407   -0.1576    0.0083    0.0583   -0.0537
        7 C1     *py        0.1371    0.0314   -0.0183   -0.0810   -0.2926   -0.0034   -0.6525   -0.1563    0.3564   -0.2159
        8 C1     2pz       -0.0028   -0.0093   -0.1074   -0.0275   -0.0149    0.1528    0.0462   -0.0267   -0.0232   -0.0067
        9 C1     *pz       -0.0055   -0.0132   -0.0916   -0.1861   -0.0705    0.5275    0.1658   -0.2042   -0.1973   -0.0642
       10 C1     *200      -0.0102    0.0026    0.0011    0.0001   -0.0024    0.0006    0.0013    0.0051   -0.0006    0.0072
       11 C1     *110       0.0004    0.0146   -0.0010   -0.0015    0.0009   -0.0025    0.0005   -0.0062    0.0085    0.0043
       12 C1     *101       0.0068    0.0051   -0.0123    0.0227    0.0000    0.0021    0.0030   -0.0022    0.0006    0.0002
       13 C1     *020       0.0078    0.0007    0.0047   -0.0039    0.0081   -0.0004    0.0030   -0.0041   -0.0033   -0.0029
       14 C1     *011      -0.0110   -0.0073   -0.0157    0.0143   -0.0079   -0.0062   -0.0032   -0.0069    0.0070   -0.0015
       15 C1     *002       0.0047   -0.0026   -0.0057    0.0046    0.0015   -0.0057    0.0042   -0.0014    0.0003    0.0021
       16 C2     1s        -0.0012   -0.0095   -0.0005    0.0023    0.0249   -0.0014    0.0005   -0.0510   -0.0344   -0.0244
       17 C2     2s         0.0051    0.0184    0.0037   -0.0136   -0.0662    0.0165   -0.0043    0.0250    0.0324    0.0025
       18 C2     *s        -0.0145    0.0529   -0.0198    0.0184   -0.2380   -0.0796   -0.1612    1.1111    0.7623    0.4061
       19 C2     2px       -0.0233    0.2077    0.0198   -0.0113    0.0628   -0.0127    0.0351   -0.1503   -0.0235    0.0516
       20 C2     *px       -0.0102    0.1514   -0.0005   -0.0280    0.2341   -0.2110    0.1656   -0.4657   -0.1478    0.1922
       21 C2     2py       -0.1690    0.0186   -0.0426    0.0470   -0.0288    0.0175   -0.0358    0.1141    0.0287    0.0351
       22 C2     *py       -0.0802   -0.0135   -0.0344    0.0962   -0.0881    0.0038    0.0982    0.4872    0.0173    0.2022
       23 C2     2pz       -0.0277   -0.0189    0.3508   -0.3342    0.0710    0.0019    0.0043    0.0699    0.0461   -0.0039
       24 C2     *pz       -0.0143   -0.0146    0.3093   -0.6326    0.1271   -0.1059   -0.0441    0.2370    0.0628   -0.0029
       25 C2     *200      -0.0080   -0.0025    0.0001   -0.0005    0.0008   -0.0006    0.0002   -0.0043    0.0024   -0.0080
       26 C2     *110       0.0043    0.0230    0.0017    0.0006   -0.0104   -0.0020   -0.0005    0.0080    0.0017   -0.0050
       27 C2     *101       0.0004    0.0034   -0.0029   -0.0006   -0.0005    0.0093    0.0045    0.0007   -0.0086    0.0003
       28 C2     *020       0.0053    0.0010    0.0031    0.0011   -0.0053    0.0019   -0.0049   -0.0020    0.0010   -0.0001
       29 C2     *011      -0.0004    0.0003   -0.0256   -0.0223    0.0026   -0.0002   -0.0043    0.0029    0.0005   -0.0009
       30 C2     *002       0.0008   -0.0003   -0.0030   -0.0022    0.0015   -0.0011    0.0020   -0.0012   -0.0021    0.0015
       31 C3     1s        -0.0047    0.0080   -0.0010    0.0240    0.0566    0.0137    0.0412    0.0306    0.0869   -0.0507
       32 C3     2s         0.0112   -0.0195    0.0135   -0.0164   -0.0534    0.0147   -0.0078    0.0027   -0.0568    0.0232
       33 C3     *s         0.0082   -0.0115   -0.0503   -0.4114   -0.8616   -0.3739   -0.9315   -0.7877   -1.5803    1.0188
       34 C3     2px        0.0269    0.2274   -0.0254    0.0040   -0.0720    0.0707   -0.0278   -0.0596   -0.0998    0.1179
       35 C3     *px        0.0063    0.1456    0.0315    0.0217   -0.2324    0.4464   -0.0895   -0.0898   -0.6453    0.2734
       36 C3     2py       -0.3026   -0.0157    0.0200   -0.0177   -0.0401    0.0316   -0.0032   -0.0116   -0.0086    0.0881
       37 C3     *py       -0.1775    0.0018    0.0379   -0.0851   -0.1293    0.1140    0.3567   -0.0973   -0.0559    0.6331
       38 C3     2pz        0.0137    0.0058    0.0088    0.0112    0.0577    0.1348    0.0704    0.0887    0.0365    0.0684
       39 C3     *pz        0.0013    0.0137   -0.0057    0.1528    0.2389    0.3059    0.1390    0.3550    0.1618    0.4970
       40 C3     *200      -0.0111    0.0049    0.0008    0.0020    0.0058   -0.0014    0.0013   -0.0031    0.0004   -0.0037
       41 C3     *110      -0.0021    0.0216   -0.0030   -0.0008    0.0073    0.0004   -0.0022   -0.0008   -0.0001   -0.0021
       42 C3     *101       0.0023    0.0070    0.0003    0.0024   -0.0007   -0.0085   -0.0021    0.0012    0.0082    0.0035
       43 C3     *020       0.0060   -0.0009    0.0012   -0.0008    0.0006   -0.0020   -0.0050    0.0047    0.0068    0.0028
       44 C3     *011      -0.0140   -0.0023   -0.0018    0.0022    0.0014   -0.0005   -0.0066    0.0026   -0.0016    0.0010
       45 C3     *002       0.0039   -0.0026   -0.0007    0.0018    0.0007    0.0059    0.0084    0.0028    0.0010   -0.0035
       46 H4     1s         0.0332   -0.0320   -0.0959    0.0698   -0.0270   -0.0251    0.0045   -0.0290    0.0162    0.0020
       47 H4     *s         0.0365   -0.0325   -0.1169    0.4095    0.4209   -1.0911    0.4533    0.1372   -0.0314    0.6763
       48 H5     1s         0.1320    0.0253    0.0667   -0.0554    0.0382    0.0158    0.0102    0.0104   -0.0384   -0.0134
       49 H5     *s         0.1369    0.0219    0.0838   -0.1513    0.7096    0.0643    1.2091    0.0439   -0.5759    0.6952
       50 C6     1s        -0.0012    0.0095    0.0005    0.0023    0.0249    0.0014   -0.0005   -0.0510    0.0344   -0.0244
       51 C6     2s         0.0051   -0.0184   -0.0037   -0.0136   -0.0662   -0.0165    0.0043    0.0250   -0.0324    0.0025
       52 C6     *s        -0.0145   -0.0529    0.0198    0.0184   -0.2380    0.0796    0.1611    1.1111   -0.7629    0.4052
       53 C6     2px       -0.0081   -0.2054   -0.0206   -0.0127    0.0645    0.0142   -0.0380   -0.1603    0.0263    0.0484
       54 C6     *px       -0.0030   -0.1521    0.0000   -0.0313    0.2399    0.2097   -0.1566   -0.5086    0.1491    0.1739
       55 C6     2py        0.1704    0.0368   -0.0408   -0.0460    0.0232    0.0163   -0.0326   -0.1004    0.0266   -0.0395
       56 C6     *py        0.0808   -0.0001   -0.0344   -0.0936    0.0673   -0.0147    0.1125   -0.4443    0.0045   -0.2183
       57 C6     2pz        0.0278   -0.0172    0.3510    0.3343   -0.0715    0.0018    0.0046   -0.0687    0.0459    0.0036
       58 C6     *pz        0.0143   -0.0134    0.3093    0.6328   -0.1291   -0.1075   -0.0428   -0.2331    0.0617    0.0015
       59 C6     *200      -0.0083    0.0045    0.0000   -0.0005    0.0016    0.0005   -0.0001   -0.0050   -0.0023   -0.0075
       60 C6     *110      -0.0019    0.0220    0.0014   -0.0005    0.0092   -0.0024    0.0005   -0.0074    0.0019    0.0063
       61 C6     *101      -0.0003    0.0033   -0.0006   -0.0014    0.0007    0.0093    0.0048   -0.0004   -0.0086   -0.0003
       62 C6     *020       0.0056   -0.0030   -0.0032    0.0011   -0.0062   -0.0017    0.0049   -0.0013   -0.0012   -0.0006
       63 C6     *011      -0.0004   -0.0008    0.0257   -0.0222    0.0025   -0.0006    0.0039    0.0031    0.0002   -0.0009
       64 C6     *002       0.0008    0.0002    0.0031   -0.0022    0.0015    0.0010   -0.0020   -0.0012    0.0021    0.0015
       65 H7     1s        -0.0564   -0.1248   -0.0079   -0.0027    0.0208    0.0084   -0.0137   -0.0155    0.0072   -0.0158
       66 H7     *s        -0.0599   -0.1134   -0.0135   -0.0118    0.5223   -0.1347    0.1918   -1.3500   -0.4920   -0.0783
       67 C8     1s         0.0087   -0.0034    0.0027    0.0028    0.0527    0.0445   -0.0636    0.0072    0.0146    0.0779
       68 C8     2s        -0.0226    0.0018   -0.0026   -0.0047   -0.0428   -0.0037    0.0368   -0.0086   -0.0089   -0.0304
       69 C8     *s        -0.0176    0.0375   -0.0480   -0.0520   -0.8496   -1.0249    1.2288   -0.1482   -0.2371   -1.6319
       70 C8     2px       -0.0716    0.2515    0.0059    0.0052    0.0223   -0.0282   -0.0087    0.0028   -0.0105    0.0351
       71 C8     *px       -0.0424    0.1436    0.0028    0.0640    0.1031   -0.0541   -0.0721    0.2448   -0.2300   -0.0986
       72 C8     2py       -0.2128   -0.0003   -0.0006    0.0181    0.0880    0.0434   -0.1575   -0.0085    0.0594    0.0509
       73 C8     *py       -0.1339    0.0189   -0.0187    0.0757    0.2847    0.0016   -0.6487    0.1354    0.3778    0.2259
       74 C8     2pz        0.0033   -0.0113   -0.1075    0.0274    0.0148    0.1530    0.0462    0.0267   -0.0232    0.0064
       75 C8     *pz        0.0058   -0.0144   -0.0917    0.1856    0.0698    0.5280    0.1661    0.2023   -0.1956    0.0649
       76 C8     *200      -0.0102   -0.0012   -0.0013    0.0000   -0.0024   -0.0008   -0.0013    0.0056    0.0013    0.0067
       77 C8     *110       0.0027    0.0148   -0.0014    0.0009    0.0009   -0.0023    0.0002    0.0044    0.0088   -0.0059
       78 C8     *101      -0.0075    0.0058   -0.0107   -0.0213   -0.0006    0.0028    0.0032    0.0014   -0.0000   -0.0004
       79 C8     *020       0.0077   -0.0020   -0.0046   -0.0040    0.0081    0.0006   -0.0030   -0.0046    0.0025   -0.0024
       80 C8     *011      -0.0103    0.0066    0.0167    0.0162   -0.0079    0.0060    0.0030   -0.0071   -0.0071   -0.0015
       81 C8     *002       0.0047    0.0026    0.0058    0.0048    0.0015    0.0057   -0.0042   -0.0014   -0.0003    0.0021
       82 H9     1s        -0.0564    0.1248    0.0079   -0.0027    0.0208   -0.0084    0.0137   -0.0155   -0.0072   -0.0158
       83 H9     *s        -0.0599    0.1134    0.0135   -0.0118    0.5223    0.1348   -0.1917   -1.3500    0.4923   -0.0777
       84 C10    1s        -0.0047   -0.0080    0.0010    0.0240    0.0566   -0.0137   -0.0412    0.0306   -0.0869   -0.0508
       85 C10    2s         0.0112    0.0195   -0.0135   -0.0164   -0.0534   -0.0147    0.0078    0.0027    0.0568    0.0233
       86 C10    *s         0.0082    0.0115    0.0503   -0.4114   -0.8616    0.3739    0.9316   -0.7875    1.5790    1.0207
       87 C10    2px        0.0533   -0.2278    0.0272    0.0055   -0.0686   -0.0665    0.0280   -0.0591    0.0989    0.1093
       88 C10    *px        0.0219   -0.1448   -0.0281    0.0278   -0.2221   -0.4322    0.1215   -0.0837    0.6391    0.2135
       89 C10    2py        0.2991    0.0044    0.0177    0.0173    0.0463    0.0376   -0.0056    0.0168   -0.0173   -0.0981
       90 C10    *py        0.1763    0.0146    0.0406    0.0829    0.1492    0.1526    0.3474    0.1049   -0.1117   -0.6545
       91 C10    2pz       -0.0141    0.0076    0.0085   -0.0112   -0.0572    0.1354    0.0701   -0.0882    0.0357   -0.0693
       92 C10    *pz       -0.0014    0.0149   -0.0055   -0.1530   -0.2370    0.3095    0.1382   -0.3543    0.1571   -0.4988
       93 C10    *200      -0.0108   -0.0029   -0.0010    0.0020    0.0051    0.0014   -0.0015   -0.0030   -0.0004   -0.0035
       94 C10    *110       0.0049    0.0223   -0.0030    0.0004   -0.0081    0.0005   -0.0011    0.0022   -0.0012    0.0032
       95 C10    *101      -0.0032    0.0073    0.0005   -0.0022    0.0007   -0.0085   -0.0017   -0.0008    0.0083   -0.0034
       96 C10    *020       0.0057   -0.0011   -0.0009   -0.0009    0.0013    0.0019    0.0051    0.0046   -0.0067    0.0025
       97 C10    *011      -0.0138    0.0015    0.0018    0.0024    0.0014    0.0012    0.0068    0.0027    0.0009    0.0013
       98 C10    *002       0.0039    0.0026    0.0007    0.0018    0.0007   -0.0059   -0.0083    0.0028   -0.0010   -0.0035
       99 H11    1s         0.0332    0.0320    0.0959    0.0698   -0.0270    0.0251   -0.0045   -0.0290   -0.0162    0.0020
      100 H11    *s         0.0365    0.0325    0.1169    0.4094    0.4209    1.0910   -0.4533    0.1372    0.0302    0.6763
      101 H12    1s         0.1320   -0.0252   -0.0667   -0.0554    0.0382   -0.0158   -0.0102    0.0104    0.0385   -0.0134
      102 H12    *s         0.1369   -0.0219   -0.0838   -0.1513    0.7096   -0.0643   -1.2091    0.0438    0.5752    0.6959
      103 H13    1s        -0.0867    0.1404   -0.0072    0.0018    0.0202   -0.0170   -0.0257   -0.0132    0.0108   -0.0042
      104 H13    *s        -0.0879    0.1433   -0.0288    0.1456    0.6874   -0.5179    0.1819    0.3188    1.1320   -1.1593
      105 H14    1s         0.0215   -0.0205   -0.0080    0.0041   -0.0184    0.0299    0.0333    0.0010    0.0086   -0.0125
      106 H14    *s         0.0226   -0.0174   -0.0246    0.2530    0.5057    0.7910    0.6661    0.6225    0.7628    0.1804
      107 H15    1s        -0.0867   -0.1404    0.0072    0.0018    0.0202    0.0170    0.0257   -0.0132   -0.0108   -0.0042
      108 H15    *s        -0.0879   -0.1433    0.0288    0.1456    0.6874    0.5179   -0.1819    0.3188   -1.1309   -1.1606
      109 H16    1s         0.0215    0.0205    0.0080    0.0041   -0.0184   -0.0299   -0.0333    0.0010   -0.0086   -0.0125
      110 H16    *s         0.0226    0.0174    0.0246    0.2530    0.5057   -0.7910   -0.6662    0.6223   -0.7627    0.1795

          Orbital           31        32        33        34        35        36        37        38        39        40    
          Energy            0.3229    0.3348    0.3428    0.3528    0.4059    0.4077    0.4345    0.4468    0.5166    0.6160
          Occ. No.          0.0000    0.0000    0.0000    0.0000    0.0000    0.0000    0.0000    0.0000    0.0000    0.0000

        1 C1     1s        -0.0558    0.0264   -0.0321    0.0347    0.0399   -0.0545    0.0384    0.0015   -0.0631   -0.0059
        2 C1     2s         0.0291   -0.0823    0.0214   -0.0334   -0.0033    0.0288    0.0058   -0.0096   -0.0578   -0.0223
        3 C1     *s         0.9932    0.1522    0.5706   -0.6177   -1.0000    1.1282   -1.1918    0.0851    2.1307    0.0679
        4 C1     2px        0.0711    0.0543    0.0169   -0.0815   -0.0289   -0.0597   -0.0537    0.2149   -0.0595    0.2067
        5 C1     *px        0.2291    0.2467   -0.0537   -0.5951   -0.4133   -0.3972   -0.0794    1.5149   -1.3422    1.2486
        6 C1     2py       -0.0141    0.0292    0.0509    0.0924   -0.0003   -0.1946    0.0686   -0.0470    0.0248   -0.0326
        7 C1     *py       -0.2770   -0.4687    0.1526    0.3793    0.3594   -1.2778    0.4958   -0.2391   -1.3599   -0.5894
        8 C1     2pz        0.1171   -0.0120   -0.2200   -0.0958    0.1215   -0.0164    0.0903   -0.0350    0.0060   -0.1060
        9 C1     *pz        0.4088   -0.1150   -1.0896   -0.6540    0.6347   -0.1996    0.6955   -0.1930   -0.0549   -0.3109
       10 C1     *200       0.0018    0.0049    0.0008    0.0037    0.0018   -0.0041    0.0089   -0.0003   -0.0067    0.0165
       11 C1     *110       0.0052    0.0098    0.0036   -0.0084   -0.0108   -0.0042    0.0035    0.0189   -0.0211   -0.0244
       12 C1     *101       0.0073   -0.0018   -0.0041    0.0013   -0.0000   -0.0044   -0.0167    0.0008   -0.0086    0.0021
       13 C1     *020      -0.0036   -0.0012   -0.0015   -0.0030    0.0001   -0.0030   -0.0087    0.0005   -0.0020   -0.0014
       14 C1     *011      -0.0089   -0.0047   -0.0078    0.0012    0.0103   -0.0028    0.0078   -0.0001   -0.0044   -0.0025
       15 C1     *002      -0.0036   -0.0019   -0.0004   -0.0010   -0.0028    0.0096   -0.0007    0.0015    0.0087   -0.0112
       16 C2     1s         0.0074   -0.0818    0.0144    0.0160   -0.0042    0.0414    0.0076   -0.0367    0.0823    0.0553
       17 C2     2s         0.0184    0.1104   -0.0166   -0.0204    0.0042   -0.0525   -0.0066    0.0197   -0.0448    0.0076
       18 C2     *s        -0.2980    1.1163   -0.3999   -0.4113   -0.0030   -0.9070   -0.3848    1.1332   -2.3961   -3.1957
       19 C2     2px        0.0454   -0.0816    0.0424   -0.0103   -0.0804   -0.1469    0.0820    0.0968   -0.2056    0.0388
       20 C2     *px        0.0027   -1.0650    0.0670   -0.0270   -0.3416   -0.8745    0.8115    0.3710   -2.2735    0.4130
       21 C2     2py       -0.0038    0.0696   -0.0314    0.0340    0.0559   -0.0183    0.0759    0.1247   -0.0314    0.1633
       22 C2     *py       -0.0803    0.3682   -0.2653    0.1767    0.5489   -0.3268    0.5450    0.5390    0.3433    3.4599
       23 C2     2pz       -0.0059   -0.0106    0.0736    0.0211    0.0406    0.0195   -0.0103    0.0296   -0.0203   -0.0097
       24 C2     *pz       -0.1804    0.0499    0.4611    0.1364    0.0051    0.0274   -0.0458    0.1120    0.0474    0.4515
       25 C2     *200       0.0018   -0.0011   -0.0024   -0.0075   -0.0021    0.0057   -0.0055    0.0065   -0.0121   -0.0152
       26 C2     *110      -0.0021   -0.0074    0.0022    0.0013   -0.0051    0.0160    0.0080   -0.0257   -0.0157   -0.0040
       27 C2     *101       0.0038    0.0049   -0.0051   -0.0084   -0.0024    0.0031    0.0084   -0.0044    0.0059    0.0024
       28 C2     *020       0.0004   -0.0049   -0.0024    0.0041    0.0026   -0.0110    0.0077   -0.0038   -0.0057   -0.0014
       29 C2     *011      -0.0011   -0.0015    0.0035    0.0014    0.0025   -0.0020    0.0082   -0.0009   -0.0015   -0.0070
       30 C2     *002      -0.0002    0.0005    0.0023    0.0014   -0.0011    0.0000    0.0003    0.0010    0.0023    0.0036
       31 C3     1s         0.0420    0.0023    0.0206   -0.0352   -0.0868    0.0141    0.0178    0.0285    0.0323    0.0244
       32 C3     2s        -0.0336    0.0288   -0.0034   -0.0037    0.0206   -0.0007   -0.0110   -0.0215    0.0530    0.0455
       33 C3     *s        -0.6852   -0.4070   -0.5388    0.8356    1.9391   -0.2205   -0.4612   -0.7560   -1.3081   -0.9440
       34 C3     2px        0.1163    0.0606    0.0736    0.0270   -0.1281    0.0813   -0.0819    0.0994   -0.1025   -0.0812
       35 C3     *px        0.5305    0.5171    0.3724    0.0393   -1.1824    0.6510   -0.6851    0.5029    0.2810    0.9139
       36 C3     2py        0.0162    0.0583    0.0082    0.1094   -0.0744    0.0110    0.2308   -0.1025    0.0460   -0.0541
       37 C3     *py        0.0831    0.3948   -0.0624    0.2655   -0.7307   -0.1430    1.4758   -0.7786    0.7994   -0.7065
       38 C3     2pz        0.1084   -0.0424    0.0531    0.1510    0.0396   -0.0535   -0.1007   -0.1338   -0.0244    0.0540
       39 C3     *pz        0.5284   -0.3308    0.5655    0.8252    0.4556   -0.3910   -0.6406   -0.9018   -0.4894   -0.2189
       40 C3     *200      -0.0026   -0.0065    0.0020   -0.0011    0.0003    0.0103   -0.0087   -0.0053    0.0032   -0.0028
       41 C3     *110      -0.0061    0.0029   -0.0147    0.0034   -0.0009   -0.0050   -0.0016   -0.0209   -0.0082   -0.0155
       42 C3     *101      -0.0028   -0.0010    0.0077    0.0116    0.0094    0.0010    0.0031    0.0000   -0.0021   -0.0243
       43 C3     *020       0.0012    0.0006    0.0008   -0.0041   -0.0031   -0.0067    0.0073   -0.0016   -0.0086    0.0079
       44 C3     *011       0.0105   -0.0020    0.0008   -0.0087    0.0081   -0.0053   -0.0103   -0.0021   -0.0149    0.0161
       45 C3     *002       0.0038    0.0014   -0.0027    0.0035    0.0039   -0.0033   -0.0002    0.0021    0.0037   -0.0020
       46 H4     1s        -0.0299   -0.0010   -0.0169    0.0096   -0.0167    0.0655   -0.0264    0.0185    0.0644   -0.0738
       47 H4     *s        -0.9517    0.2716    0.8522    0.8226   -0.4503    0.3464   -0.4964    0.1059   -0.0002    0.2203
       48 H5     1s         0.0244    0.0142    0.0182   -0.0233   -0.0130    0.0415   -0.0895    0.0071    0.0470   -0.0344
       49 H5     *s         0.2231    0.2470   -1.0731   -0.6258    0.5672    0.6474    0.0835    0.1727    0.0923    0.0638
       50 C6     1s         0.0074    0.0818    0.0144   -0.0160    0.0042    0.0414   -0.0076   -0.0367   -0.0823   -0.0553
       51 C6     2s         0.0184   -0.1104   -0.0166    0.0204   -0.0041   -0.0525    0.0066    0.0197    0.0448   -0.0076
       52 C6     *s        -0.2976   -1.1165   -0.3996    0.4114    0.0043   -0.9068    0.3847    1.1332    2.3961    3.1957
       53 C6     2px        0.0456    0.0873    0.0444    0.0135    0.0855   -0.1447   -0.0751    0.0852    0.2019   -0.0244
       54 C6     *px        0.0110    1.0936    0.0861    0.0435    0.3897   -0.8422   -0.7608    0.3212    2.2952   -0.1040
       55 C6     2py       -0.0002    0.0622    0.0276    0.0330    0.0486    0.0312    0.0829   -0.1327   -0.0493    0.1660
       56 C6     *py        0.0796    0.2734    0.2585    0.1736    0.5162    0.4031    0.6141   -0.5693    0.1424    3.4826
       57 C6     2pz        0.0055   -0.0113   -0.0739    0.0210    0.0400   -0.0183   -0.0097   -0.0303   -0.0219   -0.0094
       58 C6     *pz        0.1803    0.0412   -0.4617    0.1362    0.0022   -0.0205   -0.0394   -0.1148    0.0290    0.4535
       59 C6     *200       0.0019    0.0005   -0.0025    0.0075    0.0016    0.0042    0.0062    0.0087    0.0107    0.0147
       60 C6     *110       0.0019   -0.0067   -0.0022   -0.0008   -0.0059   -0.0187    0.0055    0.0235   -0.0166   -0.0063
       61 C6     *101      -0.0039    0.0050    0.0055   -0.0086   -0.0027   -0.0034    0.0076    0.0042    0.0058    0.0027
       62 C6     *020       0.0003    0.0055   -0.0023   -0.0041   -0.0021   -0.0094   -0.0083   -0.0059    0.0071    0.0018
       63 C6     *011      -0.0007    0.0011    0.0030   -0.0006   -0.0023   -0.0016   -0.0090   -0.0014    0.0011    0.0068
       64 C6     *002      -0.0002   -0.0005    0.0023   -0.0013    0.0011    0.0001   -0.0004    0.0009   -0.0024   -0.0036
       65 H7     1s         0.0168   -0.0100   -0.0012   -0.0315   -0.0172   -0.0154   -0.0472    0.0874    0.0430   -0.0707
       66 H7     *s         0.2477   -1.6273    0.3744   -0.0715   -0.7619   -0.3679    0.3687   -0.1855   -0.9502   -0.4545
       67 C8     1s        -0.0559   -0.0264   -0.0321   -0.0347   -0.0399   -0.0546   -0.0384    0.0015    0.0631    0.0059
       68 C8     2s         0.0291    0.0823    0.0214    0.0334    0.0032    0.0288   -0.0058   -0.0096    0.0578    0.0223
       69 C8     *s         0.9934   -0.1518    0.5707    0.6176    0.9983    1.1298    1.1916    0.0855   -2.1307   -0.0680
       70 C8     2px        0.0711   -0.0516    0.0142    0.0885    0.0298   -0.0422    0.0602    0.2185    0.0615   -0.2096
       71 C8     *px        0.2494   -0.2878   -0.0579    0.6208    0.4487   -0.2812    0.1279    1.5316    1.2172   -1.2980
       72 C8     2py        0.0078    0.0339   -0.0523    0.0849   -0.0031    0.1991    0.0636    0.0279    0.0194   -0.0143
       73 C8     *py        0.2558   -0.4452   -0.1474    0.3258    0.3197    1.3082    0.4864    0.1053   -1.4724   -0.4775
       74 C8     2pz       -0.1177   -0.0115    0.2199   -0.0966    0.1213    0.0170    0.0898    0.0332    0.0055   -0.1043
       75 C8     *pz       -0.4107   -0.1126    1.0900   -0.6591    0.6309    0.2033    0.6945    0.1809   -0.0652   -0.3006
       76 C8     *200       0.0013   -0.0040    0.0005   -0.0044   -0.0027   -0.0037   -0.0086   -0.0020    0.0047   -0.0185
       77 C8     *110      -0.0061    0.0108   -0.0040   -0.0071   -0.0104    0.0043    0.0065   -0.0185   -0.0216   -0.0209
       78 C8     *101      -0.0081   -0.0013    0.0034    0.0013   -0.0009    0.0043   -0.0171   -0.0008   -0.0084    0.0028
       79 C8     *020      -0.0031    0.0003   -0.0012    0.0037    0.0008   -0.0034    0.0083    0.0022    0.0039    0.0034
       80 C8     *011      -0.0082    0.0047   -0.0081   -0.0012   -0.0102   -0.0032   -0.0064    0.0001    0.0053    0.0025
       81 C8     *002      -0.0035    0.0019   -0.0005    0.0010    0.0028    0.0096    0.0008    0.0015   -0.0086    0.0112
       82 H9     1s         0.0168    0.0100   -0.0012    0.0315    0.0173   -0.0153    0.0472    0.0874   -0.0429    0.0707
       83 H9     *s         0.2473    1.6275    0.3740    0.0715    0.7624   -0.3669   -0.3687   -0.1856    0.9502    0.4545
       84 C10    1s         0.0420   -0.0023    0.0206    0.0352    0.0868    0.0142   -0.0178    0.0284   -0.0323   -0.0244
       85 C10    2s        -0.0336   -0.0288   -0.0034    0.0037   -0.0206   -0.0007    0.0110   -0.0215   -0.0530   -0.0455
       86 C10    *s        -0.6859    0.4068   -0.5390   -0.8354   -1.9388   -0.2233    0.4614   -0.7560    1.3081    0.9441
       87 C10    2px        0.1135   -0.0556    0.0722   -0.0161    0.1213    0.0807    0.1010    0.1091    0.1059    0.0766
       88 C10    *px        0.5167   -0.4829    0.3721   -0.0094    1.1164    0.6660    0.8066    0.5768   -0.2137   -0.9741
       89 C10    2py       -0.0263    0.0634   -0.0146    0.1113   -0.0854   -0.0182    0.2227    0.0934    0.0369   -0.0610
       90 C10    *py       -0.1292    0.4387    0.0296    0.2676   -0.8319    0.0842    1.4100    0.7314    0.8211   -0.6235
       91 C10    2pz       -0.1094   -0.0420   -0.0536    0.1512    0.0385    0.0529   -0.1014    0.1329   -0.0253    0.0534
       92 C10    *pz       -0.5326   -0.3270   -0.5682    0.8256    0.4457    0.3863   -0.6469    0.8974   -0.4874   -0.2113
       93 C10    *200      -0.0020    0.0067    0.0033    0.0015   -0.0003    0.0106    0.0084   -0.0034   -0.0038    0.0011
       94 C10    *110       0.0067    0.0016    0.0143    0.0039   -0.0004    0.0019   -0.0043    0.0212   -0.0059   -0.0173
       95 C10    *101       0.0038   -0.0010   -0.0077    0.0122    0.0086   -0.0017    0.0038   -0.0001   -0.0008   -0.0256
       96 C10    *020       0.0007   -0.0008   -0.0005    0.0038    0.0032   -0.0070   -0.0070   -0.0035    0.0093   -0.0064
       97 C10    *011       0.0102    0.0021    0.0013    0.0076   -0.0089   -0.0052    0.0100   -0.0023    0.0151   -0.0137
       98 C10    *002       0.0038   -0.0014   -0.0026   -0.0036   -0.0040   -0.0033    0.0002    0.0021   -0.0037    0.0022
       99 H11    1s        -0.0299    0.0010   -0.0169   -0.0096    0.0166    0.0655    0.0264    0.0185   -0.0644    0.0739
      100 H11    *s        -0.9518   -0.2715    0.8521   -0.8228    0.4498    0.3472    0.4963    0.1060    0.0002   -0.2203
      101 H12    1s         0.0244   -0.0142    0.0182    0.0233    0.0129    0.0415    0.0895    0.0071   -0.0470    0.0344
      102 H12    *s         0.2230   -0.2472   -1.0728    0.6260   -0.5681    0.6465   -0.0837    0.1727   -0.0923   -0.0638
      103 H13    1s        -0.0372   -0.0361   -0.0211   -0.0018    0.0235    0.0125   -0.0509   -0.0978    0.0001   -0.0647
      104 H13    *s        -0.5599   -0.5109   -0.3500   -0.7925    0.5510   -0.3050   -0.0012    0.1145    0.2555    0.0891
      105 H14    1s         0.0343   -0.0038   -0.0081    0.0392    0.0464   -0.0426   -0.0179   -0.0011   -0.0264   -0.0349
      106 H14    *s         0.9636   -0.2227    0.6393    0.7847   -0.2618   -0.3678   -0.3907   -0.7272   -0.0698    0.0584
      107 H15    1s        -0.0372    0.0361   -0.0211    0.0018   -0.0235    0.0125    0.0510   -0.0978   -0.0001    0.0647
      108 H15    *s        -0.5595    0.5107   -0.3501    0.7926   -0.5506   -0.3058    0.0012    0.1145   -0.2555   -0.0891
      109 H16    1s         0.0343    0.0038   -0.0081   -0.0392   -0.0463   -0.0426    0.0179   -0.0011    0.0264    0.0349
      110 H16    *s         0.9638    0.2230    0.6391   -0.7849    0.2624   -0.3674    0.3910   -0.7272    0.0698   -0.0584
--


++    Molecular charges:
      ------------------

      Mulliken charges per centre and basis function type
      ---------------------------------------------------

[...]
       24 C2     *pz       -0.2152   -0.0356    0.4669    0.1324    0.0032    0.0089   -0.0440    0.1243    0.0252    0.4013
       25 C2     *200       0.0012    0.0016   -0.0034   -0.0072   -0.0012    0.0050   -0.0060    0.0063   -0.0124   -0.0149
       26 C2     *110      -0.0016    0.0071    0.0017    0.0006   -0.0071    0.0188    0.0075   -0.0243   -0.0161   -0.0040
       27 C2     *101       0.0043   -0.0059   -0.0050   -0.0094   -0.0040    0.0031    0.0069   -0.0034    0.0077    0.0008
       28 C2     *020       0.0006    0.0049   -0.0024    0.0039    0.0013   -0.0107    0.0086   -0.0047   -0.0070   -0.0027
       29 C2     *011      -0.0012    0.0015    0.0034    0.0013    0.0017   -0.0016    0.0090   -0.0005   -0.0009   -0.0077
       30 C2     *002      -0.0003   -0.0010    0.0022    0.0011   -0.0010   -0.0000    0.0003    0.0011    0.0029    0.0038
       31 C3     1s         0.0390    0.0163    0.0169   -0.0339   -0.0824    0.0110    0.0038    0.0303    0.0362    0.0210
       32 C3     2s        -0.0278   -0.0339   -0.0026   -0.0078    0.0254   -0.0019   -0.0132   -0.0214    0.0558    0.0422
       33 C3     *s        -0.6830   -0.0080   -0.4450    0.8624    1.7721   -0.1407   -0.0721   -0.7854   -1.4403   -0.8681
       34 C3     2px        0.1055   -0.0815    0.0932    0.0250   -0.1220    0.0762   -0.0918    0.1078   -0.1033   -0.0820
       35 C3     *px        0.5093   -0.6719    0.4324    0.0208   -1.1252    0.6409   -0.8683    0.5719    0.3440    0.9245
       36 C3     2py        0.0157   -0.0649    0.0153    0.0928   -0.1026    0.0222    0.2268   -0.1055    0.0480   -0.0522
       37 C3     *py        0.0760   -0.4331    0.0140    0.1717   -0.8697   -0.1014    1.4009   -0.7513    0.8880   -0.7803
       38 C3     2pz        0.1116    0.0426    0.0668    0.1542    0.0563   -0.0491   -0.0822   -0.1240   -0.0415    0.0550
       39 C3     *pz        0.5539    0.3092    0.6976    0.8749    0.4933   -0.3640   -0.5027   -0.8878   -0.5259   -0.1948
       40 C3     *200      -0.0023    0.0066    0.0014   -0.0008    0.0011    0.0105   -0.0089   -0.0045    0.0019   -0.0025
       41 C3     *110      -0.0045   -0.0033   -0.0151    0.0026   -0.0016   -0.0045   -0.0015   -0.0215   -0.0081   -0.0143
       42 C3     *101      -0.0034    0.0025    0.0084    0.0117    0.0098    0.0009    0.0043   -0.0009   -0.0033   -0.0238
       43 C3     *020       0.0013    0.0011    0.0014   -0.0035   -0.0045   -0.0076    0.0070   -0.0011   -0.0084    0.0088
       44 C3     *011       0.0098    0.0027    0.0015   -0.0086    0.0087   -0.0044   -0.0099   -0.0037   -0.0158    0.0178
       45 C3     *002       0.0035   -0.0013   -0.0031    0.0032    0.0046   -0.0031    0.0006    0.0013    0.0047   -0.0034
       46 H4     1s        -0.0207    0.0065   -0.0177    0.0106   -0.0089    0.0586   -0.0301    0.0210    0.0541   -0.0690
       47 H4     *s        -1.0192   -0.4020    0.9035    0.8311   -0.3877    0.3940   -0.5175    0.0925    0.0547    0.2023
       48 H5     1s         0.0236   -0.0177    0.0186   -0.0178    0.0029    0.0355   -0.0933    0.0030    0.0520   -0.0361
       49 H5     *s         0.2918   -0.3932   -1.0127   -0.7683    0.4954    0.7138    0.1309    0.2646    0.1247    0.0709
       50 C6     1s         0.0067   -0.0705    0.0121   -0.0199    0.0072    0.0433   -0.0070   -0.0345   -0.0811   -0.0553
       51 C6     2s         0.0183    0.0973   -0.0147    0.0272   -0.0086   -0.0556    0.0055    0.0137    0.0411   -0.0116
       52 C6     *s        -0.2835    0.8834   -0.4154    0.4484   -0.0755   -0.9877    0.4197    1.0924    2.4781    3.5602
       53 C6     2px        0.0365   -0.0748    0.0517    0.0163    0.1067   -0.1445   -0.0632    0.0833    0.1946   -0.0230
       54 C6     *px       -0.0082   -1.0384    0.1017    0.0403    0.6061   -0.8316   -0.7381    0.2632    2.3422   -0.1223
       55 C6     2py        0.0013   -0.0587    0.0216    0.0235    0.0365    0.0422    0.0868   -0.1354   -0.0541    0.1569
       56 C6     *py        0.0761   -0.3150    0.2575    0.0950    0.4453    0.4502    0.7033   -0.5566    0.1361    3.7535
       57 C6     2pz        0.0117    0.0238   -0.0732    0.0182    0.0392   -0.0149   -0.0067   -0.0386   -0.0363   -0.0107
       58 C6     *pz        0.2153   -0.0273   -0.4677    0.1322   -0.0015   -0.0021   -0.0378   -0.1266    0.0064    0.4036
       59 C6     *200       0.0013   -0.0011   -0.0035    0.0071    0.0005    0.0033    0.0066    0.0084    0.0110    0.0145
       60 C6     *110       0.0015    0.0064   -0.0015   -0.0014   -0.0074   -0.0212    0.0047    0.0220   -0.0168   -0.0060
       61 C6     *101      -0.0044   -0.0060    0.0054   -0.0096   -0.0041   -0.0033    0.0060    0.0033    0.0075    0.0012
       62 C6     *020       0.0005   -0.0055   -0.0023   -0.0038   -0.0007   -0.0089   -0.0091   -0.0067    0.0084    0.0032
       63 C6     *011      -0.0008   -0.0010    0.0030   -0.0005   -0.0013   -0.0012   -0.0097   -0.0010    0.0004    0.0077
       64 C6     *002      -0.0002    0.0010    0.0021   -0.0010    0.0011   -0.0000   -0.0003    0.0011   -0.0030   -0.0038
       65 H7     1s         0.0139    0.0115   -0.0043   -0.0259   -0.0063   -0.0271   -0.0516    0.0840    0.0398   -0.0700
       66 H7     *s         0.2082    1.4921    0.4031   -0.0027   -0.9320   -0.3198    0.2659   -0.2036   -0.9486   -0.4808
       67 C8     1s        -0.0531    0.0334   -0.0267   -0.0262   -0.0326   -0.0520   -0.0455   -0.0018    0.0632    0.0056
       68 C8     2s         0.0229   -0.0821    0.0190    0.0263    0.0070    0.0327   -0.0074   -0.0068    0.0643    0.0177
       69 C8     *s         0.9939   -0.0413    0.4625    0.4684    0.7576    1.0347    1.4252    0.1363   -2.1592   -0.0108
       70 C8     2px        0.0638    0.0414    0.0196    0.0883    0.0249   -0.0482    0.0679    0.2182    0.0590   -0.2056
       71 C8     *px        0.2452    0.2256   -0.0964    0.6693    0.4394   -0.3362    0.2539    1.5305    1.1835   -1.3636
       72 C8     2py        0.0068   -0.0193   -0.0437    0.0852   -0.0013    0.2035    0.0600    0.0340    0.0226   -0.0080
       73 C8     *py        0.2652    0.5488   -0.0948    0.3561    0.2567    1.3507    0.5939    0.1888   -1.5835   -0.4576
       74 C8     2pz       -0.1313    0.0199    0.2107   -0.1030    0.1086    0.0140    0.0987    0.0314   -0.0004   -0.1032
       75 C8     *pz       -0.4722    0.1249    1.0828   -0.7194    0.5008    0.1822    0.7398    0.1566   -0.0712   -0.2642
       76 C8     *200       0.0010    0.0043    0.0012   -0.0035   -0.0013   -0.0028   -0.0094   -0.0020    0.0044   -0.0193
       77 C8     *110      -0.0052   -0.0092   -0.0056   -0.0077   -0.0116    0.0056    0.0053   -0.0198   -0.0213   -0.0203
       78 C8     *101      -0.0082    0.0011    0.0029    0.0019    0.0013    0.0042   -0.0169    0.0000   -0.0081    0.0047
       79 C8     *020      -0.0035    0.0003   -0.0019    0.0037   -0.0003   -0.0036    0.0086    0.0020    0.0041    0.0043
       80 C8     *011      -0.0072   -0.0058   -0.0088   -0.0003   -0.0091   -0.0030   -0.0080   -0.0002    0.0071    0.0014
       81 C8     *002      -0.0031   -0.0019   -0.0002    0.0007    0.0025    0.0095    0.0018    0.0019   -0.0077    0.0105
       82 H9     1s         0.0139   -0.0115   -0.0043    0.0259    0.0063   -0.0271    0.0516    0.0840   -0.0398    0.0700
       83 H9     *s         0.2081   -1.4922    0.4030    0.0027    0.9320   -0.3197   -0.2659   -0.2037    0.9486    0.4808
       84 C10    1s         0.0390   -0.0163    0.0169    0.0339    0.0824    0.0110   -0.0038    0.0303   -0.0362   -0.0210
       85 C10    2s        -0.0278    0.0339   -0.0026    0.0078   -0.0254   -0.0019    0.0132   -0.0214   -0.0558   -0.0422
       86 C10    *s        -0.6831    0.0080   -0.4451   -0.8623   -1.7721   -0.1410    0.0721   -0.7854    1.4403    0.8681
       87 C10    2px        0.1029    0.0758    0.0909   -0.0156    0.1130    0.0744    0.1107    0.1176    0.1067    0.0776
       88 C10    *px        0.4962    0.6337    0.4239    0.0014    1.0484    0.6504    0.9838    0.6428   -0.2690   -0.9910
       89 C10    2py       -0.0249   -0.0718   -0.0234    0.0946   -0.1129   -0.0288    0.2179    0.0956    0.0388   -0.0592
       90 C10    *py       -0.1202   -0.4905   -0.0517    0.1726   -0.9653    0.0445    1.3194    0.6979    0.9149   -0.6961
       91 C10    2pz       -0.1124    0.0420   -0.0675    0.1544    0.0554    0.0485   -0.0830    0.1231   -0.0424    0.0544
       92 C10    *pz       -0.5579    0.3040   -0.7010    0.8750    0.4844    0.3589   -0.5102    0.8829   -0.5235   -0.1870
       93 C10    *200      -0.0018   -0.0069    0.0027    0.0012   -0.0011    0.0108    0.0086   -0.0026   -0.0025    0.0010
       94 C10    *110       0.0051   -0.0023    0.0149    0.0031   -0.0007    0.0012   -0.0042    0.0218   -0.0061   -0.0161
       95 C10    *101       0.0044    0.0023   -0.0084    0.0123    0.0089   -0.0015    0.0051    0.0007   -0.0019   -0.0253
       96 C10    *020       0.0009   -0.0009    0.0000    0.0033    0.0046   -0.0078   -0.0067   -0.0030    0.0090   -0.0075
       97 C10    *011       0.0094   -0.0028    0.0021    0.0075   -0.0095   -0.0043    0.0095   -0.0039    0.0161   -0.0155
       98 C10    *002       0.0035    0.0013   -0.0030   -0.0033   -0.0047   -0.0031   -0.0006    0.0013   -0.0047    0.0036
       99 H11    1s        -0.0207   -0.0065   -0.0177   -0.0106    0.0089    0.0586    0.0301    0.0210   -0.0541    0.0690
      100 H11    *s        -1.0192    0.4020    0.9035   -0.8311    0.3877    0.3941    0.5174    0.0925   -0.0547   -0.2023
      101 H12    1s         0.0236    0.0177    0.0186    0.0178   -0.0029    0.0355    0.0933    0.0030   -0.0520    0.0361
      102 H12    *s         0.2918    0.3933   -1.0126    0.7684   -0.4954    0.7137   -0.1309    0.2646   -0.1247   -0.0709
      103 H13    1s        -0.0331    0.0368   -0.0203    0.0027    0.0298    0.0203   -0.0461   -0.0949   -0.0118   -0.0627
      104 H13    *s        -0.5729    0.8105   -0.5557   -0.7849    0.6182   -0.3328    0.0473    0.0676    0.2595    0.0784
      105 H14    1s         0.0288   -0.0010   -0.0088    0.0381    0.0478   -0.0378   -0.0039   -0.0047   -0.0138   -0.0427
      106 H14    *s         0.9930    0.3792    0.7443    0.8362   -0.1148   -0.3768   -0.3914   -0.7101   -0.1172    0.0530
      107 H15    1s        -0.0331   -0.0368   -0.0203   -0.0027   -0.0298    0.0203    0.0461   -0.0949    0.0118    0.0627
      108 H15    *s        -0.5729   -0.8105   -0.5557    0.7849   -0.6182   -0.3329   -0.0473    0.0676   -0.2595   -0.0784
      109 H16    1s         0.0288    0.0010   -0.0088   -0.0381   -0.0478   -0.0378    0.0039   -0.0047    0.0138    0.0427
      110 H16    *s         0.9930   -0.3793    0.7443   -0.8363    0.1149   -0.3767    0.3914   -0.7100    0.1172   -0.0530

          Orbital           41    
          Energy            0.6935
          Occ. No.          0.0000

        1 C1     1s        -0.0038
        2 C1     2s         0.0840
        3 C1     *s        -0.1820
        4 C1     2px        0.3025
        5 C1     *px       -0.2276
        6 C1     2py       -0.1229
        7 C1     *py        0.0506
        8 C1     2pz       -0.0674
        9 C1     *pz        0.0244
       10 C1     *200       0.0089
       11 C1     *110      -0.0572
       12 C1     *101      -0.0123
       13 C1     *020      -0.0018
       14 C1     *011       0.0091
       15 C1     *002       0.0029
       16 C2     1s         0.0062
       17 C2     2s         0.1618
       18 C2     *s         0.0486
       19 C2     2px       -0.1421
       20 C2     *px        0.2677
       21 C2     2py       -0.3349
       22 C2     *py        0.6167
       23 C2     2pz       -0.0345
       24 C2     *pz        0.0421
       25 C2     *200      -0.0123
       26 C2     *110      -0.0118
       27 C2     *101      -0.0017
       28 C2     *020       0.0292
       29 C2     *011       0.0058
       30 C2     *002      -0.0007
       31 C3     1s         0.0022
       32 C3     2s         0.0033
       33 C3     *s        -0.0846
       34 C3     2px       -0.1795
       35 C3     *px        0.2659
       36 C3     2py        0.2603
       37 C3     *py       -0.4219
       38 C3     2pz       -0.0429
       39 C3     *pz        0.0185
       40 C3     *200       0.0135
       41 C3     *110      -0.0518
       42 C3     *101      -0.0163
       43 C3     *020      -0.0168
       44 C3     *011       0.0274
       45 C3     *002       0.0024
       46 H4     1s        -0.0295
       47 H4     *s         0.0344
       48 H5     1s        -0.0330
       49 H5     *s         0.0685
       50 C6     1s         0.0062
       51 C6     2s         0.1618
       52 C6     *s         0.0486
       53 C6     2px       -0.1119
       54 C6     *px        0.2122
       55 C6     2py        0.3461
       56 C6     *py       -0.6378
       57 C6     2pz        0.0355
       58 C6     *pz       -0.0441
       59 C6     *200      -0.0109
       60 C6     *110       0.0189
       61 C6     *101       0.0024
       62 C6     *020       0.0278
       63 C6     *011       0.0055
       64 C6     *002      -0.0007
       65 H7     1s         0.0045
       66 H7     *s         0.0151
       67 C8     1s        -0.0038
       68 C8     2s         0.0840
       69 C8     *s        -0.1820
       70 C8     2px        0.3127
       71 C8     *px       -0.2313
       72 C8     2py        0.0958
       73 C8     *py       -0.0304
       74 C8     2pz        0.0649
       75 C8     *pz       -0.0225
       76 C8     *200       0.0139
       77 C8     *110       0.0545
       78 C8     *101       0.0129
       79 C8     *020      -0.0068
       80 C8     *011       0.0076
       81 C8     *002       0.0027
       82 H9     1s         0.0045
       83 H9     *s         0.0151
       84 C10    1s         0.0022
       85 C10    2s         0.0033
       86 C10    *s        -0.0846
       87 C10    2px       -0.2013
       88 C10    *px        0.3018
       89 C10    2py       -0.2435
       90 C10    *py        0.3970
       91 C10    2pz        0.0444
       92 C10    *pz       -0.0208
       93 C10    *200       0.0180
       94 C10    *110       0.0459
       95 C10    *101       0.0184
       96 C10    *020      -0.0211
       97 C10    *011       0.0254
       98 C10    *002       0.0022
       99 H11    1s        -0.0295
      100 H11    *s         0.0344
      101 H12    1s        -0.0330
      102 H12    *s         0.0685
      103 H13    1s        -0.0879
      104 H13    *s         0.0650
      105 H14    1s         0.0312
      106 H14    *s        -0.0224
      107 H15    1s        -0.0879
      108 H15    *s         0.0650
      109 H16    1s         0.0312
      110 H16    *s        -0.0224
--


++    Molecular charges:
      ------------------

      Mulliken charges per centre and basis function type
      ---------------------------------------------------

                C1      C2      C3      H4      H5      C6      H7      C8      H9      C10     H11     H12   
      1s       1.9968  1.9966  1.9969  0.5276  0.5289  1.9966  0.5307  1.9968  0.5307  1.9969  0.5276  0.5289
      2s       0.6290  0.6624  0.6271  0.0000  0.0000  0.6624  0.0000  0.6290  0.0000  0.6271  0.0000  0.0000
      2px      0.6735  0.7004  0.6803  0.0000  0.0000  0.7012  0.0000  0.6740  0.0000  0.6787  0.0000  0.0000
      2pz      0.6905  0.5255  0.6866  0.0000  0.0000  0.5255  0.0000  0.6906  0.0000  0.6867  0.0000  0.0000
      2py      0.6869  0.7561  0.6748  0.0000  0.0000  0.7553  0.0000  0.6863  0.0000  0.6763  0.0000  0.0000
      *s       0.6101  0.5123  0.6159  0.3061  0.3039  0.5123  0.2935  0.6101  0.2935  0.6159  0.3061  0.3039
      *px      0.2485  0.2869  0.3268  0.0000  0.0000  0.2969  0.0000  0.2495  0.0000  0.3181  0.0000  0.0000
      *pz      0.3834  0.4680  0.3611  0.0000  0.0000  0.4678  0.0000  0.3836  0.0000  0.3616  0.0000  0.0000
      *py      0.3321  0.2127  0.2711  0.0000  0.0000  0.2029  0.0000  0.3308  0.0000  0.2793  0.0000  0.0000
      *200     0.0127  0.0250  0.0188  0.0000  0.0000  0.0264  0.0000  0.0124  0.0000  0.0175  0.0000  0.0000
      *110     0.0122  0.0184  0.0136  0.0000  0.0000  0.0175  0.0000  0.0129  0.0000  0.0143  0.0000  0.0000
      *101     0.0051  0.0017  0.0040  0.0000  0.0000  0.0015  0.0000  0.0050  0.0000  0.0042  0.0000  0.0000
      *020     0.0157  0.0234  0.0119  0.0000  0.0000  0.0229  0.0000  0.0154  0.0000  0.0125  0.0000  0.0000
      *011     0.0135  0.0098  0.0069  0.0000  0.0000  0.0101  0.0000  0.0135  0.0000  0.0067  0.0000  0.0000
      *002     0.0209 -0.0183  0.0236  0.0000  0.0000 -0.0183  0.0000  0.0210  0.0000  0.0236  0.0000  0.0000
      Total    6.3309  6.1810  6.3194  0.8337  0.8328  6.1810  0.8242  6.3309  0.8242  6.3194  0.8337  0.8328

      N-E     -0.3309 -0.1810 -0.3194  0.1663  0.1672 -0.1810  0.1758 -0.3309  0.1758 -0.3194  0.1663  0.1672

                H13     H14     H15     H16   
      1s       0.5310  0.5302  0.5310  0.5302
      2s       0.0000  0.0000  0.0000  0.0000
      2px      0.0000  0.0000  0.0000  0.0000
      2pz      0.0000  0.0000  0.0000  0.0000
      2py      0.0000  0.0000  0.0000  0.0000
      *s       0.3069  0.3099  0.3069  0.3099
      *px      0.0000  0.0000  0.0000  0.0000
      *pz      0.0000  0.0000  0.0000  0.0000
      *py      0.0000  0.0000  0.0000  0.0000
      *200     0.0000  0.0000  0.0000  0.0000
      *110     0.0000  0.0000  0.0000  0.0000
      *101     0.0000  0.0000  0.0000  0.0000
      *020     0.0000  0.0000  0.0000  0.0000
      *011     0.0000  0.0000  0.0000  0.0000
      *002     0.0000  0.0000  0.0000  0.0000
      Total    0.8379  0.8401  0.8379  0.8401

      N-E      0.1621  0.1599  0.1621  0.1599

      Total electronic charge=   46.000000

      Total            charge=   -0.000000
--


++    Molecular properties:
      ---------------------

      Charge (e):
                      =   -0.0000
      Dipole Moment (Debye):
      Origin of the operator (Ang)=    0.0000    0.0000    0.0000
                   X=  1.8913E-01               Y= -8.3181E-03               Z= -7.6207E-04           Total=  1.8931E-01
      Quadrupole Moment (Debye*Ang):
      Origin of the operator (Ang)=   -4.1667    0.0469    0.0036
                  XX= -3.8064E+01              XY=  3.7483E-02              XZ=  6.6409E-03              YY= -3.7239E+01
                  YZ=  2.8745E-01              ZZ= -3.9555E+01
      In traceless form (Debye*Ang)
                  XX=  3.3355E-01              XY=  5.6225E-02              XZ=  9.9614E-03              YY=  1.5702E+00
                  YZ=  4.3117E-01              ZZ= -1.9038E+00
--


      Input file to MOLDEN was generated!

 ###############################################################################
 ###############################################################################
 ###                                                                         ###
 ###                                                                         ###
 ###    WARNING: RunFile label nBas                                          ###
 ###    was used       63 times                                              ###
 ###                                                                         ###
 ###                                                                         ###
 ###############################################################################
 ###############################################################################
--- Stop Module: last_energy at Mon May 20 16:41:00 2024 /rc=_RC_ALL_IS_WELL_ ---
*** files: cyclohexene.scf.molden cyclohexene.ScfOrb xmldump
    saved to directory /home/kenya/molcas_test/0514
--- Module last_energy spent 12 seconds ---

>>> END DO

.##################.
.# Happy landing! #.
.##################.

    Timing: Wall=169.16 User=151.36 System=17.34
