[Molden Format]
[N_Atoms]
                    6
[Atoms] (AU)
C1          1      6          -8.44815591      2.61471626     -0.00009243
C2          2      6          -8.40624228      0.12640651     -0.00014778
H3          3      1          -9.41489309      3.67053427     -1.44406290
H4          4      1          -7.51789724      3.70242340      1.44417039
H5          5      1          -9.33821933     -0.96132902     -1.44328066
H6          6      1          -7.43888223     -0.92940033      1.44341339
[Charge] (Mulliken)
 -0.35273366168203246     
 -0.35273372288086158     
  0.17636681833839618     
  0.17636683379186535     
  0.17636688109020904     
  0.17636685134231633     
[GTO] (AU)
   1
   s   6
  3.047524880E+03  1.834737132E-03
  4.573695180E+02  1.403732281E-02
  1.039486850E+02  6.884262227E-02
  2.921015530E+01  2.321844432E-01
  9.286662960E+00  4.679413484E-01
  3.163926960E+00  3.623119853E-01
   s   3
  7.868272350E+00 -1.193324198E-01
  1.881288540E+00 -1.608541517E-01
  5.442492580E-01  1.143456438E+00
   s   1
  1.687144782E-01  1.000000000E+00
   p   3
  7.868272350E+00  6.899906659E-02
  1.881288540E+00  3.164239610E-01
  5.442492580E-01  7.443082909E-01
   p   1
  1.687144782E-01  1.000000000E+00
   d   1
  8.000000000E-01  1.000000000E+00
 
   2
   s   6
  3.047524880E+03  1.834737132E-03
  4.573695180E+02  1.403732281E-02
  1.039486850E+02  6.884262227E-02
  2.921015530E+01  2.321844432E-01
  9.286662960E+00  4.679413484E-01
  3.163926960E+00  3.623119853E-01
   s   3
  7.868272350E+00 -1.193324198E-01
  1.881288540E+00 -1.608541517E-01
  5.442492580E-01  1.143456438E+00
   s   1
  1.687144782E-01  1.000000000E+00
   p   3
  7.868272350E+00  6.899906659E-02
  1.881288540E+00  3.164239610E-01
  5.442492580E-01  7.443082909E-01
   p   1
  1.687144782E-01  1.000000000E+00
   d   1
  8.000000000E-01  1.000000000E+00
 
   3
   s   3
  1.873113696E+01  3.349460434E-02
  2.825394365E+00  2.347269535E-01
  6.401216923E-01  8.137573261E-01
   s   1
  1.612777588E-01  1.000000000E+00
 
   4
   s   3
  1.873113696E+01  3.349460434E-02
  2.825394365E+00  2.347269535E-01
  6.401216923E-01  8.137573261E-01
   s   1
  1.612777588E-01  1.000000000E+00
 
   5
   s   3
  1.873113696E+01  3.349460434E-02
  2.825394365E+00  2.347269535E-01
  6.401216923E-01  8.137573261E-01
   s   1
  1.612777588E-01  1.000000000E+00
 
   6
   s   3
  1.873113696E+01  3.349460434E-02
  2.825394365E+00  2.347269535E-01
  6.401216923E-01  8.137573261E-01
   s   1
  1.612777588E-01  1.000000000E+00
 
[MO]
Sym=     1a  
Ene=   -11.2240
Spin= Alpha
Occup=    2.00000
   1         0.70372702
   2         0.01927620
   3        -0.00533787
   4        -0.00000248
   5         0.00014697
   6         0.00000001
   7         0.00001263
   8        -0.00074637
   9        -0.00000005
  10        -0.00182291
  11        -0.00130804
  12        -0.00172802
  13        -0.00001000
  14         0.00012661
  15         0.00000213
  16         0.70373226
  17         0.01927635
  18        -0.00533795
  19         0.00000239
  20        -0.00014697
  21         0.00000005
  22        -0.00001229
  23         0.00074637
  24        -0.00000017
  25        -0.00182263
  26        -0.00130804
  27        -0.00172832
  28        -0.00000997
  29         0.00012675
  30         0.00000212
  31        -0.00014100
  32         0.00148574
  33        -0.00014100
  34         0.00148574
  35        -0.00014100
  36         0.00148575
  37        -0.00014100
  38         0.00148575
Sym=     2a  
Ene=   -11.2230
Spin= Alpha
Occup=    2.00000
   1        -0.70423581
   2        -0.01980245
   3         0.01119062
   4        -0.00000312
   5         0.00018282
   6         0.00000003
   7         0.00002792
   8        -0.00167087
   9         0.00000011
  10         0.00163925
  11         0.00098612
  12         0.00143413
  13         0.00001277
  14        -0.00027425
  15        -0.00000467
  16         0.70423057
  17         0.01980231
  18        -0.01119058
  19        -0.00000314
  20         0.00018282
  21         0.00000005
  22         0.00002852
  23        -0.00167087
  24        -0.00000028
  25        -0.00163908
  26        -0.00098611
  27        -0.00143428
  28        -0.00001262
  29         0.00027434
  30         0.00000458
  31         0.00006521
  32        -0.00154248
  33         0.00006521
  34        -0.00154249
  35        -0.00006521
  36         0.00154247
  37        -0.00006521
  38         0.00154247
Sym=     3a  
Ene=    -1.0332
Spin= Alpha
Occup=    2.00000
   1        -0.15801642
   2         0.29842381
   3         0.22835698
   4         0.00180274
   5        -0.10756861
   6         0.00000363
   7         0.00010335
   8        -0.00630912
   9         0.00000178
  10        -0.00760612
  11         0.01713349
  12        -0.00067749
  13        -0.00048250
  14         0.00925089
  15         0.00015692
  16        -0.15801644
  17         0.29842385
  18         0.22835700
  19        -0.00182538
  20         0.10756821
  21         0.00001126
  22        -0.00011107
  23         0.00630899
  24         0.00000330
  25        -0.00759207
  26         0.01713358
  27        -0.00069164
  28        -0.00047890
  29         0.00925799
  30         0.00015485
  31         0.08278421
  32         0.01565539
  33         0.08278421
  34         0.01565539
  35         0.08278425
  36         0.01565539
  37         0.08278425
  38         0.01565539
Sym=     4a  
Ene=    -0.7896
Spin= Alpha
Occup=    2.00000
   1         0.11949733
   2        -0.23128548
   3        -0.23239990
   4         0.00284871
   5        -0.16849338
   6        -0.00001069
   7         0.00113711
   8        -0.06720038
   9        -0.00000489
  10         0.00047858
  11        -0.00127770
  12        -0.01334322
  13         0.00003808
  14        -0.01844504
  15        -0.00031268
  16        -0.11949731
  17         0.23128544
  18         0.23239983
  19         0.00280755
  20        -0.16849405
  21         0.00001638
  22         0.00112036
  23        -0.06720064
  24         0.00000612
  25        -0.00045605
  26         0.00127796
  27         0.01332042
  28        -0.00002854
  29         0.01845651
  30         0.00030689
  31        -0.14697083
  32        -0.06668285
  33        -0.14697083
  34        -0.06668285
  35         0.14697081
  36         0.06668284
  37         0.14697081
  38         0.06668284
Sym=     5a  
Ene=    -0.6407
Spin= Alpha
Occup=    2.00000
   1        -0.00000000
   2         0.00000000
   3        -0.00000001
   4         0.17702016
   5         0.00297577
   6         0.26941269
   7         0.07041162
   8         0.00118365
   9         0.10715346
  10        -0.00021083
  11         0.00020626
  12         0.00000457
  13         0.00708184
  14        -0.00018373
  15         0.01079387
  16         0.00000000
  17        -0.00000001
  18        -0.00000000
  19         0.17714161
  20         0.00297783
  21         0.26933311
  22         0.07045236
  23         0.00118434
  24         0.10712679
  25         0.00019912
  26        -0.00020674
  27         0.00000763
  28        -0.00709854
  29         0.00017748
  30        -0.01078316
  31        -0.15747443
  32        -0.10716553
  33         0.15747443
  34         0.10716553
  35        -0.15747458
  36        -0.10716562
  37         0.15747458
  38         0.10716561
Sym=     6a  
Ene=    -0.5865
Spin= Alpha
Occup=    2.00000
   1         0.01227667
   2        -0.02833278
   3         0.01532505
   4        -0.00691278
   5         0.40817004
   6         0.00003375
   7        -0.00258993
   8         0.15283849
   9         0.00001360
  10         0.00706285
  11        -0.01133662
  12         0.01818111
  13         0.00035803
  14         0.01483287
  15         0.00024884
  16         0.01227664
  17        -0.02833271
  18         0.01532511
  19         0.00681949
  20        -0.40817163
  21         0.00002761
  22         0.00255023
  23        -0.15283916
  24         0.00001251
  25         0.00707905
  26        -0.01133656
  27         0.01816483
  28         0.00036090
  29         0.01484102
  30         0.00024730
  31         0.12525339
  32         0.10054263
  33         0.12525343
  34         0.10054266
  35         0.12525344
  36         0.10054267
  37         0.12525339
  38         0.10054264
Sym=     7a  
Ene=    -0.5020
Spin= Alpha
Occup=    2.00000
   1         0.00000000
   2        -0.00000001
   3         0.00000000
   4        -0.16685012
   5        -0.00280472
   6        -0.25434883
   7        -0.10789180
   8        -0.00181366
   9        -0.16443449
  10         0.00060200
  11        -0.00059652
  12        -0.00000547
  13        -0.02048162
  14         0.00052646
  15        -0.03115468
  16        -0.00000001
  17         0.00000001
  18         0.00000003
  19         0.16734462
  20         0.00281305
  21         0.25402342
  22         0.10817725
  23         0.00181847
  24         0.16424666
  25         0.00058819
  26        -0.00059624
  27         0.00000806
  28        -0.02047215
  29         0.00051983
  30        -0.03116117
  31         0.18956745
  32         0.15566779
  33        -0.18956742
  34        -0.15566774
  35        -0.18956730
  36        -0.15566761
  37         0.18956735
  38         0.15566766
Sym=     8a  
Ene=    -0.3744
Spin= Alpha
Occup=    2.00000
   1        -0.00000249
   2         0.00000087
   3         0.00003271
   4         0.31379174
   5         0.00535398
   6        -0.20601363
   7         0.25380334
   8         0.00430770
   9        -0.16664557
  10         0.00062280
  11        -0.00062385
  12         0.00000152
  13        -0.02133285
  14        -0.00023642
  15         0.01406602
  16        -0.00001397
  17         0.00002710
  18         0.00005199
  19         0.31349437
  20         0.00520747
  21        -0.20646964
  22         0.25357729
  23         0.00422151
  24        -0.16699156
  25        -0.00062385
  26         0.00062316
  27         0.00000066
  28         0.02136428
  29         0.00023871
  30        -0.01401820
  31        -0.00011729
  32        -0.00013312
  33         0.00012304
  34         0.00015757
  35         0.00011911
  36         0.00015633
  37        -0.00012122
  38        -0.00013436
Sym=     9a  
Ene=     0.1839
Spin= Alpha
Occup=    0.00000
   1         0.00002040
   2        -0.00004208
   3        -0.00003789
   4        -0.28418854
   5        -0.00480443
   6         0.18665590
   7        -0.62499077
   8        -0.01067144
   9         0.41046556
  10         0.00058699
  11        -0.00058485
  12         0.00000023
  13        -0.02009550
  14        -0.00022459
  15         0.01324095
  16        -0.00003347
  17         0.00005286
  18         0.00022076
  19         0.28398997
  20         0.00473017
  21        -0.18695975
  22         0.62452870
  23         0.01029904
  24        -0.41117772
  25         0.00058435
  26        -0.00058976
  27        -0.00000142
  28        -0.02011666
  29        -0.00022190
  30         0.01320876
  31        -0.00005746
  32        -0.00028169
  33         0.00010274
  34         0.00047673
  35        -0.00012254
  36        -0.00056643
  37         0.00003765
  38         0.00019199
Sym=    10a  
Ene=     0.2668
Spin= Alpha
Occup=    0.00000
   1         0.07771793
   2        -0.07973138
   3        -1.50456421
   4         0.00245190
   5        -0.14498682
   6        -0.00000969
   7         0.01102257
   8        -0.65343760
   9        -0.00002498
  10         0.00660088
  11        -0.00397241
  12         0.00903650
  13         0.00020440
  14         0.00326921
  15         0.00005556
  16         0.07771790
  17        -0.07973131
  18        -1.50456444
  19        -0.00239264
  20         0.14498781
  21        -0.00002947
  22        -0.01079257
  23         0.65344096
  24        -0.00012685
  25         0.00659045
  26        -0.00397246
  27         0.00904699
  28         0.00020266
  29         0.00326397
  30         0.00005646
  31         0.01252052
  32         1.04324957
  33         0.01252055
  34         1.04324992
  35         0.01252053
  36         1.04324913
  37         0.01252057
  38         1.04324994
Sym=    11a  
Ene=     0.2932
Spin= Alpha
Occup=    0.00000
   1         0.00000005
   2        -0.00000007
   3        -0.00000072
   4         0.13889386
   5         0.00233478
   6         0.21166319
   7         0.44063367
   8         0.00740691
   9         0.67190169
  10         0.00036776
  11        -0.00036339
  12        -0.00000437
  13        -0.01247682
  14         0.00032099
  15        -0.01896498
  16        -0.00000001
  17         0.00000002
  18        -0.00000013
  19         0.13924248
  20         0.00234073
  21         0.21143384
  22         0.44211729
  23         0.00743229
  24         0.67092642
  25        -0.00036068
  26         0.00036285
  27        -0.00000216
  28         0.01245856
  29        -0.00031793
  30         0.01897714
  31         0.04105173
  32         1.10008550
  33        -0.04105170
  34        -1.10008450
  35         0.04105168
  36         1.10008539
  37        -0.04105172
  38        -1.10008518
Sym=    12a  
Ene=     0.3111
Spin= Alpha
Occup=    0.00000
   1         0.10783018
   2        -0.10058286
   3        -1.96093164
   4         0.00175208
   5        -0.10111322
   6        -0.00003439
   7         0.00292047
   8        -0.15811015
   9        -0.00017253
  10         0.00760736
  11         0.00391357
  12         0.00264965
  13         0.00007742
  14        -0.00664335
  15        -0.00011543
  16        -0.10783020
  17         0.10058292
  18         1.96093203
  19         0.00163030
  20        -0.10111521
  21         0.00004566
  22         0.00233282
  23        -0.15811999
  24         0.00021358
  25        -0.00761591
  26        -0.00391327
  27        -0.00264140
  28        -0.00006750
  29         0.00663935
  30         0.00010873
  31         0.01513270
  32         1.08508992
  33         0.01513268
  34         1.08509004
  35        -0.01513268
  36        -1.08509057
  37        -0.01513269
  38        -1.08508994
Sym=    13a  
Ene=     0.3931
Spin= Alpha
Occup=    0.00000
   1         0.00000002
   2        -0.00000003
   3        -0.00000047
   4        -0.13515409
   5        -0.00227202
   6        -0.20584636
   7        -1.05247677
   8        -0.01769236
   9        -1.60171750
  10         0.00028839
  11        -0.00028206
  12        -0.00000633
  13        -0.00968445
  14         0.00025072
  15        -0.01472698
  16        -0.00000001
  17        -0.00000001
  18         0.00000033
  19         0.13538533
  20         0.00227590
  21         0.20569434
  22         1.05312410
  23         0.01770363
  24         1.60129240
  25         0.00027796
  26        -0.00028181
  27         0.00000386
  28        -0.00967625
  29         0.00024574
  30        -0.01473262
  31         0.04107379
  32        -1.64623558
  33        -0.04107381
  34         1.64623587
  35        -0.04107388
  36         1.64623618
  37         0.04107388
  38        -1.64623624
Sym=    14a  
Ene=     0.4957
Spin= Alpha
Occup=    0.00000
   1         0.06600403
   2         0.00029206
   3        -3.21073176
   4        -0.00214617
   5         0.12631069
   6         0.00001503
   7        -0.05163248
   8         3.05606472
   9         0.00017029
  10         0.00147004
  11        -0.00266402
  12        -0.01262361
  13         0.00007525
  14        -0.01877696
  15        -0.00031234
  16        -0.06600404
  17        -0.00029207
  18         3.21073193
  19        -0.00208097
  20         0.12631161
  21        -0.00002792
  22        -0.05128820
  23         3.05607061
  24        -0.00005637
  25        -0.00142672
  26         0.00266378
  27         0.01258053
  28        -0.00008233
  29         0.01879839
  30         0.00031791
  31        -0.08061690
  32        -0.59475399
  33        -0.08061687
  34        -0.59475425
  35         0.08061703
  36         0.59475373
  37         0.08061705
  38         0.59475383
Sym=    15a  
Ene=     0.6619
Spin= Alpha
Occup=    0.00000
   1        -0.02237485
   2        -0.21563917
   3        -0.19351008
   4        -0.00919757
   5         0.54642639
   6         0.00000785
   7         0.01748126
   8        -1.03820170
   9        -0.00001885
  10         0.00851202
  11        -0.07548500
  12         0.02156217
  13         0.00163191
  14         0.01738854
  15         0.00029166
  16        -0.02237480
  17        -0.21563900
  18        -0.19351247
  19         0.00920063
  20        -0.54642655
  21        -0.00000981
  22        -0.01744240
  23         1.03820011
  24        -0.00000672
  25         0.00852983
  26        -0.07548485
  27         0.02154428
  28         0.00163543
  29         0.01739749
  30         0.00028972
  31         0.09559379
  32         0.06132550
  33         0.09559381
  34         0.06132548
  35         0.09559388
  36         0.06132475
  37         0.09559390
  38         0.06132469
Sym=    16a  
Ene=     0.7680
Spin= Alpha
Occup=    0.00000
   1         0.00000001
   2        -0.00000006
   3        -0.00000002
   4        -0.21859180
   5        -0.00367459
   6        -0.33247854
   7         0.42647538
   8         0.00716921
   9         0.64964028
  10         0.00148761
  11        -0.00146515
  12        -0.00002247
  13        -0.05030558
  14         0.00129824
  15        -0.07656115
  16        -0.00000001
  17        -0.00000002
  18         0.00000008
  19        -0.21855484
  20        -0.00367402
  21        -0.33250269
  22         0.42729448
  23         0.00718311
  24         0.64910224
  25        -0.00143699
  26         0.00146555
  27        -0.00002857
  28         0.05032023
  29        -0.00127267
  30         0.07655254
  31         0.38914787
  32         0.07206495
  33        -0.38914782
  34        -0.07206501
  35         0.38914761
  36         0.07206576
  37        -0.38914774
  38        -0.07206565
Sym=    17a  
Ene=     0.7726
Spin= Alpha
Occup=    0.00000
   1        -0.00000149
   2         0.00012087
   3        -0.00005366
   4         0.61475707
   5         0.01037192
   6        -0.40384850
   7        -0.53431226
   8        -0.00909435
   9         0.35104155
  10         0.00171580
  11        -0.00169627
  12         0.00001252
  13        -0.05851409
  14        -0.00064611
  15         0.03850759
  16        -0.00000346
  17         0.00015599
  18        -0.00019403
  19         0.61439424
  20         0.01030996
  21        -0.40440193
  22        -0.53403147
  23        -0.00907813
  24         0.35146914
  25        -0.00169682
  26         0.00173391
  27         0.00000905
  28         0.05853180
  29         0.00064839
  30        -0.03848008
  31        -0.00000295
  32         0.00020805
  33         0.00005314
  34        -0.00018673
  35         0.00003037
  36        -0.00025650
  37        -0.00002571
  38         0.00013828
Sym=    18a  
Ene=     0.8524
Spin= Alpha
Occup=    0.00000
   1         0.04096022
   2         0.79097391
   3        -1.56105057
   4         0.00008846
   5        -0.01009968
   6         0.00005335
   7         0.00644043
   8        -0.37705518
   9        -0.00006685
  10         0.01776599
  11         0.09177506
  12         0.09574111
  13        -0.00145687
  14         0.10413272
  15         0.00176356
  16         0.04096026
  17         0.79097399
  18        -1.56105304
  19        -0.00022671
  20         0.01009742
  21         0.00003752
  22        -0.00615112
  23         0.37705802
  24        -0.00012329
  25         0.01786122
  26         0.09177589
  27         0.09564500
  28        -0.00142579
  29         0.10418094
  30         0.00174517
  31         0.38051426
  32         0.26897479
  33         0.38051426
  34         0.26897475
  35         0.38051429
  36         0.26897456
  37         0.38051419
  38         0.26897452
Sym=    19a  
Ene=     0.8938
Spin= Alpha
Occup=    0.00000
   1        -0.00000834
   2         0.00003522
   3        -0.00000672
   4         0.68590003
   5         0.01158525
   6        -0.45069220
   7        -0.90390434
   8        -0.01517007
   9         0.59408519
  10        -0.00085609
  11         0.00086902
  12        -0.00000394
  13         0.02945749
  14         0.00031910
  15        -0.01944058
  16         0.00001310
  17        -0.00005599
  18        -0.00001066
  19        -0.68559459
  20        -0.01150236
  21         0.45115874
  22         0.90363330
  23         0.01529694
  24        -0.59449409
  25        -0.00086968
  26         0.00085036
  27         0.00000305
  28         0.02951692
  29         0.00034281
  30        -0.01935001
  31         0.00005254
  32        -0.00016185
  33        -0.00015425
  34         0.00010389
  35         0.00018124
  36        -0.00009061
  37        -0.00002555
  38         0.00017513
Sym=    20a  
Ene=     0.9662
Spin= Alpha
Occup=    0.00000
   1         0.09861622
   2         0.09860090
   3        -1.24359115
   4        -0.00971015
   5         0.57951058
   6        -0.00002073
   7         0.00550853
   8        -0.32151284
   9        -0.00006815
  10        -0.04882592
  11         0.18441860
  12         0.00849307
  13        -0.00453294
  14         0.07647553
  15         0.00128828
  16        -0.09861622
  17        -0.09860124
  18         1.24359133
  19        -0.00980711
  20         0.57950880
  21         0.00004315
  22         0.00527737
  23        -0.32151618
  24         0.00008336
  25         0.04866779
  26        -0.18441880
  27        -0.00833477
  28         0.00452580
  29        -0.07655448
  30        -0.00128695
  31         0.38609475
  32         0.11033519
  33         0.38609465
  34         0.11033534
  35        -0.38609458
  36        -0.11033553
  37        -0.38609457
  38        -0.11033513
Sym=    21a  
Ene=     1.1100
Spin= Alpha
Occup=    0.00000
   1         0.00000001
   2        -0.00000011
   3         0.00000026
   4        -0.37644779
   5        -0.00632815
   6        -0.57335860
   7         0.60711332
   8         0.01020554
   9         0.92488123
  10        -0.00301765
  11         0.00301033
  12         0.00000732
  13         0.10335950
  14        -0.00264760
  15         0.15728139
  16        -0.00000001
  17         0.00000001
  18        -0.00000013
  19        -0.37710035
  20        -0.00633911
  21        -0.57292804
  22         0.60834999
  23         0.01022638
  24         0.92406415
  25         0.00300310
  26        -0.00301056
  27         0.00000745
  28        -0.10336692
  29         0.00264019
  30        -0.15727677
  31        -0.37927000
  32         1.06861026
  33         0.37927016
  34        -1.06861025
  35        -0.37926970
  36         1.06860842
  37         0.37926971
  38        -1.06860859
Sym=    22a  
Ene=     1.1637
Spin= Alpha
Occup=    0.00000
   1         0.00000002
   2        -0.00000059
   3         0.00000109
   4         0.50958894
   5         0.00856617
   6         0.77583158
   7        -1.64346791
   8        -0.02762717
   9        -2.50134897
  10        -0.00015718
  11         0.00016055
  12        -0.00000349
  13         0.00551448
  14        -0.00013950
  15         0.00840372
  16         0.00000000
  17        -0.00000024
  18         0.00000027
  19        -0.51018819
  20        -0.00857632
  21        -0.77543878
  22         1.64468918
  23         0.02764767
  24         2.50054851
  25        -0.00013199
  26         0.00016091
  27        -0.00002897
  28         0.00552663
  29        -0.00012671
  30         0.00839591
  31         0.14588380
  32        -1.51988865
  33        -0.14588314
  34         1.51988772
  35        -0.14588379
  36         1.51988977
  37         0.14588410
  38        -1.51989027
Sym=    23a  
Ene=     1.2122
Spin= Alpha
Occup=    0.00000
   1        -0.01780766
   2         0.92802950
   3        -1.73754334
   4        -0.00634127
   5         0.37435832
   6         0.00003212
   7         0.00842178
   8        -0.49626860
   9        -0.00005333
  10         0.06537949
  11         0.10026322
  12        -0.00581394
  13        -0.00063639
  14        -0.09494302
  15        -0.00162292
  16        -0.01780770
  17         0.92802860
  18        -1.73753968
  19         0.00620636
  20        -0.37436040
  21         0.00005651
  22        -0.00819925
  23         0.49627336
  24        -0.00009285
  25         0.06523430
  26         0.10026073
  27        -0.00566643
  28        -0.00072191
  29        -0.09501755
  30        -0.00156983
  31        -0.45405945
  32         0.87445281
  33        -0.45405979
  34         0.87445406
  35        -0.45405985
  36         0.87445397
  37        -0.45405939
  38         0.87445236
Sym=    24a  
Ene=     1.2215
Spin= Alpha
Occup=    0.00000
   1         0.01724850
   2        -0.58797490
   3         1.00390940
   4         0.00997373
   5        -0.58674709
   6        -0.00007261
   7        -0.01806265
   8         1.06310281
   9         0.00012625
  10        -0.04208446
  11        -0.14587358
  12         0.03517281
  13         0.00202588
  14         0.10308863
  15         0.00172595
  16        -0.01724850
  17         0.58797526
  18        -1.00391015
  19         0.00974228
  20        -0.58675109
  21         0.00007996
  22        -0.01766380
  23         1.06310953
  24        -0.00013707
  25         0.04197838
  26         0.14587341
  27        -0.03506649
  28        -0.00203578
  29        -0.10314176
  30        -0.00172169
  31         0.46203860
  32        -1.00833329
  33         0.46203870
  34        -1.00833367
  35        -0.46203871
  36         1.00833351
  37        -0.46203876
  38         1.00833404
Sym=    25a  
Ene=     1.3441
Spin= Alpha
Occup=    0.00000
   1         0.02901522
   2         1.44738164
   3        -5.56214996
   4         0.00593024
   5        -0.35171791
   6        -0.00001161
   7        -0.03523354
   8         2.09667009
   9        -0.00000778
  10         0.10627971
  11        -0.07116159
  12         0.16608040
  13         0.00345725
  14         0.07954266
  15         0.00132924
  16        -0.02901522
  17        -1.44738218
  18         5.56215085
  19         0.00593227
  20        -0.35171778
  21        -0.00001315
  22        -0.03543830
  23         2.09666669
  24         0.00012653
  25        -0.10649796
  26         0.07116136
  27        -0.16586197
  28        -0.00346569
  29        -0.07965153
  30        -0.00132838
  31         0.14044835
  32         0.26005732
  33         0.14044809
  34         0.26005729
  35        -0.14044808
  36        -0.26005768
  37        -0.14044773
  38        -0.26005795
Sym=    26a  
Ene=     1.4855
Spin= Alpha
Occup=    0.00000
   1         0.00000002
   2         0.00000065
   3        -0.00000229
   4         0.00971460
   5         0.00016337
   6         0.01533912
   7        -1.42429572
   8        -0.02394261
   9        -2.16765610
  10        -0.00271836
  11         0.00265522
  12         0.00006321
  13         0.09116779
  14        -0.00238506
  15         0.13998699
  16        -0.00000002
  17        -0.00000021
  18         0.00000130
  19        -0.01022989
  20        -0.00017209
  21        -0.01500016
  22         1.42524873
  23         0.02395968
  24         2.16703014
  25        -0.00240557
  26         0.00268920
  27        -0.00028368
  28         0.09233393
  29        -0.00219965
  30         0.13922744
  31        -0.70256130
  32        -0.68461847
  33         0.70256126
  34         0.68461934
  35         0.70256131
  36         0.68461927
  37        -0.70256172
  38        -0.68461906
Sym=    27a  
Ene=     1.7478
Spin= Alpha
Occup=    0.00000
   1         0.00000144
   2         0.00005083
   3        -0.00018509
   4        -0.16710855
   5        -0.00280193
   6         0.10972908
   7         0.04206968
   8         0.00071340
   9        -0.02279263
  10         0.01506163
  11        -0.01503203
  12        -0.00003243
  13        -0.51495247
  14        -0.00581716
  15         0.33828489
  16        -0.00000394
  17         0.00001503
  18         0.00002685
  19        -0.16696466
  20        -0.00283897
  21         0.10994695
  22         0.03759703
  23         0.00070855
  24        -0.02959454
  25        -0.01496572
  26         0.01504117
  27        -0.00008539
  28         0.51456278
  29         0.00554968
  30        -0.33888442
  31         0.00092919
  32         0.00132482
  33        -0.00094045
  34        -0.00123147
  35        -0.00098551
  36        -0.00122181
  37         0.00088413
  38         0.00133448
Sym=    28a  
Ene=     1.8152
Spin= Alpha
Occup=    0.00000
   1         0.00002260
   2         0.00031420
   3        -0.00123154
   4         0.00002733
   5        -0.00000131
   6         0.00004215
   7         0.00045013
   8         0.00012734
   9         0.00068774
  10         0.53973980
  11         0.00014930
  12        -0.53986968
  13         0.01055142
  14         0.26947834
  15         0.00464533
  16        -0.00002260
  17        -0.00031420
  18         0.00123154
  19         0.00008024
  20        -0.00000042
  21         0.00012254
  22        -0.00054988
  23         0.00011053
  24        -0.00083288
  25         0.53995127
  26         0.00015418
  27        -0.54012486
  28         0.01035035
  29         0.26886712
  30         0.00431919
  31         0.00037542
  32         0.00042006
  33        -0.00007046
  34        -0.00002634
  35        -0.00028092
  36        -0.00061432
  37        -0.00002403
  38         0.00022061
Sym=    29a  
Ene=     2.1374
Spin= Alpha
Occup=    0.00000
   1         0.00014067
   2         0.00066198
   3        -0.00273314
   4         0.00001851
   5        -0.00032778
   6         0.00001953
   7         0.00082390