[Molden Format]
[N_Atoms]
                    6
[Atoms] (AU)
C1          1      6          -8.44853087      2.62851455      0.00000000
C2          2      6          -8.40623880      0.11258988      0.00000000
H3          3      1          -9.43789698      3.64926902     -1.47848393
H4          4      1          -7.49403020      3.68194238      1.47848393
H5          5      1          -9.36072056     -0.94081905     -1.47848393
H6          6      1          -7.41687268     -0.90814568      1.47848393
[Charge] (Mulliken)
   0.0000000000000000     
   0.0000000000000000     
   0.0000000000000000     
   0.0000000000000000     
   0.0000000000000000     
   0.0000000000000000     
[GTO] (AU)
   1
   s   6
  3.047524880E+03  1.834737132E-03
  4.573695180E+02  1.403732281E-02
  1.039486850E+02  6.884262227E-02
  2.921015530E+01  2.321844432E-01
  9.286662960E+00  4.679413484E-01
  3.163926960E+00  3.623119853E-01
   s   3
  7.868272350E+00 -1.193324198E-01
  1.881288540E+00 -1.608541517E-01
  5.442492580E-01  1.143456438E+00
   s   1
  1.687144782E-01  1.000000000E+00
   p   3
  7.868272350E+00  6.899906659E-02
  1.881288540E+00  3.164239610E-01
  5.442492580E-01  7.443082909E-01
   p   1
  1.687144782E-01  1.000000000E+00
   d   1
  8.000000000E-01  1.000000000E+00
 
   2
   s   6
  3.047524880E+03  1.834737132E-03
  4.573695180E+02  1.403732281E-02
  1.039486850E+02  6.884262227E-02
  2.921015530E+01  2.321844432E-01
  9.286662960E+00  4.679413484E-01
  3.163926960E+00  3.623119853E-01
   s   3
  7.868272350E+00 -1.193324198E-01
  1.881288540E+00 -1.608541517E-01
  5.442492580E-01  1.143456438E+00
   s   1
  1.687144782E-01  1.000000000E+00
   p   3
  7.868272350E+00  6.899906659E-02
  1.881288540E+00  3.164239610E-01
  5.442492580E-01  7.443082909E-01
   p   1
  1.687144782E-01  1.000000000E+00
   d   1
  8.000000000E-01  1.000000000E+00
 
   3
   s   3
  1.873113696E+01  3.349460434E-02
  2.825394365E+00  2.347269535E-01
  6.401216923E-01  8.137573261E-01
   s   1
  1.612777588E-01  1.000000000E+00
 
   4
   s   3
  1.873113696E+01  3.349460434E-02
  2.825394365E+00  2.347269535E-01
  6.401216923E-01  8.137573261E-01
   s   1
  1.612777588E-01  1.000000000E+00
 
   5
   s   3
  1.873113696E+01  3.349460434E-02
  2.825394365E+00  2.347269535E-01
  6.401216923E-01  8.137573261E-01
   s   1
  1.612777588E-01  1.000000000E+00
 
   6
   s   3
  1.873113696E+01  3.349460434E-02
  2.825394365E+00  2.347269535E-01
  6.401216923E-01  8.137573261E-01
   s   1
  1.612777588E-01  1.000000000E+00
 
[MO]
Sym=     1a  
Ene=   -11.3500
Spin= Alpha
Occup=    2.00000
   1         0.70242613
   2         0.01432105
   3         0.00090884
   4         0.00003169
   5        -0.00188539
   6        -0.00000000
   7         0.00001979
   8        -0.00117743
   9        -0.00000000
  10         0.00000000
  11         0.00000000
  12         0.00000000
  13         0.00000000
  14        -0.00000000
  15        -0.00000000
  16         0.70243269
  17         0.01432116
  18         0.00090882
  19        -0.00003169
  20         0.00188538
  21        -0.00000000
  22        -0.00001979
  23         0.00117742
  24        -0.00000000
  25        -0.00000000
  26         0.00000000
  27         0.00000000
  28        -0.00000000
  29         0.00000000
  30        -0.00000000
  31         0.00154371
  32         0.00172364
  33         0.00154372
  34         0.00172364
  35         0.00154376
  36         0.00172368
  37         0.00154374
  38         0.00172367
Sym=     2a  
Ene=   -11.3310
Spin= Alpha
Occup=    2.00000
   1        -0.70439412
   2        -0.01174410
   3         0.00200236
   4         0.00003113
   5        -0.00185198
   6        -0.00000000
   7         0.00001944
   8        -0.00115656
   9        -0.00000000
  10        -0.00000000
  11        -0.00000000
  12        -0.00000000
  13         0.00000000
  14        -0.00000000
  15        -0.00000000
  16         0.70438755
  17         0.01174397
  18        -0.00200237
  19         0.00003113
  20        -0.00185200
  21        -0.00000000
  22         0.00001944
  23        -0.00115657
  24        -0.00000000
  25        -0.00000000
  26        -0.00000000
  27         0.00000000
  28        -0.00000000
  29         0.00000000
  30         0.00000000
  31        -0.00115704
  32        -0.00129190
  33        -0.00115704
  34        -0.00129190
  35         0.00115705
  36         0.00129191
  37         0.00115704
  38         0.00129189
Sym=     3a  
Ene=    -1.4602
Spin= Alpha
Occup=    2.00000
   1        -0.15632105
   2         0.19960375
   3         0.22557674
   4         0.00084325
   5        -0.05016050
   6        -0.00000004
   7         0.00052661
   8        -0.03132520
   9        -0.00000003
  10        -0.00000000
  11        -0.00000000
  12        -0.00000000
  13         0.00000000
  14         0.00000000
  15         0.00000000
  16        -0.15632215
  17         0.19960469
  18         0.22557780
  19        -0.00084307
  20         0.05015977
  21        -0.00000019
  22        -0.00052650
  23         0.03132475
  24        -0.00000012
  25        -0.00000000
  26        -0.00000000
  27        -0.00000000
  28         0.00000000
  29        -0.00000000
  30         0.00000000
  31         0.08459005
  32         0.09444917
  33         0.08459010
  34         0.09444922
  35         0.08459141
  36         0.09445069
  37         0.08459105
  38         0.09445028
Sym=     4a  
Ene=    -1.0162
Spin= Alpha
Occup=    2.00000
   1        -0.11544537
   2         0.16650621
   3         0.18785233
   4        -0.00256173
   5         0.15239672
   6         0.00000038
   7        -0.00159980
   8         0.09517167
   9         0.00000024
  10        -0.00000000
  11        -0.00000000
  12        -0.00000000
  13         0.00000000
  14         0.00000000
  15         0.00000000
  16         0.11544460
  17        -0.16650433
  18        -0.18785022
  19        -0.00256188
  20         0.15239631
  21         0.00000070
  22        -0.00159989
  23         0.09517142
  24         0.00000044
  25         0.00000000
  26        -0.00000000
  27         0.00000000
  28         0.00000000
  29         0.00000000
  30         0.00000000
  31         0.12284748
  32         0.13716557
  33         0.12284768
  34         0.13716580
  35        -0.12284674
  36        -0.13716474
  37        -0.12284598
  38        -0.13716389
Sym=     5a  
Ene=    -0.8523
Spin= Alpha
Occup=    2.00000
   1         0.00000014
   2        -0.00000024
   3        -0.00000027
   4         0.14844620
   5         0.00249491
   6         0.22581387
   7         0.09270458
   8         0.00155807
   9         0.14102064
  10         0.00000000
  11         0.00000000
  12         0.00000000
  13         0.00000000
  14        -0.00000000
  15         0.00000000
  16        -0.00000011
  17         0.00000035
  18         0.00000040
  19         0.14844650
  20         0.00249521
  21         0.22581505
  22         0.09270476
  23         0.00155825
  24         0.14102138
  25        -0.00000000
  26        -0.00000000
  27        -0.00000000
  28        -0.00000000
  29        -0.00000000
  30        -0.00000000
  31        -0.12528954
  32        -0.13989225
  33         0.12528917
  34         0.13989184
  35        -0.12528998
  36        -0.13989275
  37         0.12529074
  38         0.13989359
Sym=     6a  
Ene=    -0.6037
Spin= Alpha
Occup=    2.00000
   1         0.03863363
   2        -0.04275644
   3        -0.04843023
   4        -0.00612817
   5         0.36477127
   6        -0.00000254
   7        -0.00382704
   8         0.22779947
   9        -0.00000158
  10        -0.00000000
  11         0.00000000
  12        -0.00000000
  13         0.00000000
  14         0.00000000
  15        -0.00000000
  16         0.03863245
  17        -0.04275448
  18        -0.04842803
  19         0.00613604
  20        -0.36477247
  21        -0.00000243
  22         0.00383195
  23        -0.22780022
  24        -0.00000152
  25         0.00000000
  26        -0.00000000
  27        -0.00000000
  28        -0.00000000
  29         0.00000000
  30        -0.00000000
  31         0.10832871
  32         0.12095461
  33         0.10832820
  34         0.12095405
  35         0.10832789
  36         0.12095370
  37         0.10832841
  38         0.12095428
Sym=     7a  
Ene=    -0.5711
Spin= Alpha
Occup=    2.00000
   1        -0.00000049
   2         0.00000053
   3         0.00000060
   4         0.35564607
   5         0.00597437
   6        -0.23384543
   7         0.22210078
   8         0.00373099
   9        -0.14603635
  10         0.00000000
  11        -0.00000000
  12        -0.00000000
  13        -0.00000000
  14         0.00000000
  15         0.00000000
  16        -0.00000004
  17        -0.00000045
  18        -0.00000050
  19         0.35563133
  20         0.00598292
  21        -0.23386762
  22         0.22209158
  23         0.00373633
  24        -0.14605021
  25         0.00000000
  26        -0.00000000
  27        -0.00000000
  28        -0.00000000
  29        -0.00000000
  30         0.00000000
  31        -0.00001039
  32        -0.00001160
  33         0.00000810
  34         0.00000905
  35         0.00000818
  36         0.00000913
  37        -0.00001031
  38        -0.00001151
Sym=     8a  
Ene=    -0.5592
Spin= Alpha
Occup=    2.00000
   1        -0.00000004
   2         0.00000007
   3         0.00000008
   4        -0.15358790
   5        -0.00258244
   6        -0.23367430
   7        -0.09591556
   8        -0.00161273
   9        -0.14592948
  10         0.00000000
  11         0.00000000
  12         0.00000000
  13        -0.00000000
  14        -0.00000000
  15        -0.00000000
  16         0.00000004
  17         0.00000016
  18         0.00000018
  19         0.15362265
  20         0.00258297
  21         0.23365002
  22         0.09593727
  23         0.00161306
  24         0.14591432
  25         0.00000000
  26         0.00000000
  27        -0.00000000
  28        -0.00000000
  29         0.00000000
  30        -0.00000000
  31         0.18618715
  32         0.20788759
  33        -0.18618752
  34        -0.20788800
  35        -0.18618553
  36        -0.20788577
  37         0.18618614
  38         0.20788646
Sym=     9a  
Ene=    -0.2988
Spin= Alpha
Occup=    0.00000
   1        -0.00000010
   2         0.00000013
   3         0.00000015
   4        -0.49163097
   5        -0.00826430
   6         0.32328208
   7        -0.30702328
   8        -0.00516105
   9         0.20188949
  10        -0.00000000
  11        -0.00000000
  12        -0.00000000
  13        -0.00000000
  14         0.00000000
  15         0.00000000
  16         0.00000042
  17        -0.00000150
  18        -0.00000168
  19         0.49163226
  20         0.00826578
  21        -0.32328008
  22         0.30702409
  23         0.00516197
  24        -0.20188824
  25         0.00000000
  26         0.00000000
  27         0.00000000
  28        -0.00000000
  29         0.00000000
  30         0.00000000
  31         0.00000038
  32         0.00000043
  33        -0.00000070
  34        -0.00000078
  35         0.00000131
  36         0.00000146
  37         0.00000023
  38         0.00000026
Sym=    10a  
Ene=    -0.1467
Spin= Alpha
Occup=    0.00000
   1         0.00000043
   2         0.00000136
   3         0.00000150
   4         0.29124674
   5         0.00489759
   6         0.44303654
   7         0.18188344
   8         0.00305854
   9         0.27667609
  10         0.00000000
  11         0.00000000
  12         0.00000000
  13        -0.00000000
  14        -0.00000000
  15        -0.00000000
  16        -0.00000810
  17         0.00003468
  18         0.00003879
  19         0.29122259
  20         0.00486824
  21         0.44300681
  22         0.18186835
  23         0.00304021
  24         0.27665752
  25        -0.00000000
  26        -0.00000000
  27        -0.00000000
  28        -0.00000000
  29         0.00000000
  30        -0.00000000
  31         0.37101730
  32         0.41426002
  33        -0.37101657
  34        -0.41425921
  35         0.37097322
  36         0.41421081
  37        -0.37102705
  38        -0.41427091
Sym=    11a  
Ene=    -0.1378
Spin= Alpha
Occup=    0.00000
   1         0.09530533
   2        -0.47092094
   3        -0.52634410
   4         0.00632817
   5        -0.37546286
   6         0.00002434
   7         0.00395194
   8        -0.23447636
   9         0.00001520
  10        -0.00000000
  11        -0.00000000
  12        -0.00000000
  13        -0.00000000
  14         0.00000000
  15         0.00000000
  16         0.09519912
  17        -0.47048694
  18        -0.52585864
  19        -0.00630092
  20         0.37514037
  21         0.00001285
  22        -0.00393492
  23         0.23427497
  24         0.00000802
  25         0.00000000
  26         0.00000000
  27         0.00000000
  28        -0.00000000
  29         0.00000000
  30        -0.00000000
  31         0.34107122
  32         0.38082367
  33         0.34103349
  34         0.38078154
  35         0.34071592
  36         0.38042696
  37         0.34069210
  38         0.38040037
Sym=    12a  
Ene=    -0.1361
Spin= Alpha
Occup=    0.00000
   1        -0.10853374
   2         0.44653123
   3         0.49947277
   4        -0.00583601
   5         0.34815761
   6         0.00002321
   7        -0.00364459
   8         0.21742424
   9         0.00001450
  10        -0.00000000
  11        -0.00000000
  12        -0.00000000
  13        -0.00000000
  14        -0.00000000
  15        -0.00000000
  16         0.10862546
  17        -0.44698806
  18        -0.49998334
  19        -0.00585347
  20         0.34851574
  21         0.00001320
  22        -0.00365549
  23         0.21764790
  24         0.00000824
  25         0.00000000
  26        -0.00000000
  27        -0.00000000
  28        -0.00000000
  29        -0.00000000
  30        -0.00000000
  31        -0.36517299
  32        -0.40773454
  33        -0.36520914
  34        -0.40777491
  35         0.36553263
  36         0.40813610
  37         0.36550905
  38         0.40810978
Sym=    13a  
Ene=    -0.1083
Spin= Alpha
Occup=    0.00000
   1        -0.00000038
   2         0.00000095
   3         0.00000106
   4        -0.40799206
   5        -0.00686130
   6        -0.62062983
   7        -0.25479083
   8        -0.00428488
   9        -0.38758301
  10        -0.00000000
  11        -0.00000000
  12        -0.00000000
  13         0.00000000
  14         0.00000000
  15         0.00000000
  16         0.00000258
  17        -0.00001377
  18        -0.00001539
  19         0.40801007
  20         0.00686479
  21         0.62066116
  22         0.25480208
  23         0.00428706
  24         0.38760257
  25        -0.00000000
  26        -0.00000000
  27        -0.00000000
  28         0.00000000
  29        -0.00000000
  30        -0.00000000
  31        -0.36190251
  32        -0.40408289
  33         0.36190312
  34         0.40408356
  35         0.36193595
  36         0.40412022
  37        -0.36191884
  38        -0.40410112
Sym=    14a  
Ene=    -0.1000
Spin= Alpha
Occup=    0.00000
   1         0.10363755
   2        -0.59343738
   3        -0.66292725
   4        -0.01337325
   5         0.79547584
   6        -0.00000235
   7        -0.00835159
   8         0.49677424
   9        -0.00000147
  10         0.00000000
  11        -0.00000000
  12         0.00000000
  13         0.00000000
  14        -0.00000000
  15         0.00000000
  16        -0.10363906
  17         0.59344509
  18         0.66293586
  19        -0.01337044
  20         0.79546992
  21         0.00000212
  22        -0.00834983
  23         0.49677055
  24         0.00000133
  25        -0.00000000
  26         0.00000000
  27        -0.00000000
  28        -0.00000000
  29         0.00000000
  30        -0.00000000
  31        -0.02163396
  32        -0.02415544
  33        -0.02163102
  34        -0.02415215
  35         0.02162754
  36         0.02414826
  37         0.02162518
  38         0.02414564
Sym=    15a  
Ene=     4.1744
Spin= Alpha
Occup=    0.00000
   1         0.05827782
   2         0.65358565
   3        -5.16384911
   4         0.00485279
   5        -0.28860628
   6         0.00000214
   7        -0.05814664
   8         3.45843196
   9        -0.00001786
  10         0.10868018
  11        -0.27746984
  12         0.11033726
  13         0.00749734
  14         0.00206964
  15         0.00003468
  16        -0.05827894
  17        -0.65359662
  18         5.16388988
  19         0.00484991
  20        -0.28860458
  21        -0.00000214
  22        -0.05812364
  23         3.45841790
  24         0.00001946
  25        -0.10868158
  26         0.27746865
  27        -0.11033833
  28        -0.00749757
  29        -0.00206924
  30        -0.00003511
  31        -0.09350890
  32        -0.13313785
  33        -0.09351202
  34        -0.13310789
  35         0.09351140
  36         0.13311653
  37         0.09351465
  38         0.13308334
Sym=    16a  
Ene=     4.2242
Spin= Alpha
Occup=    0.00000
   1        -0.00000034
   2        -0.00000381
   3         0.00003111
   4         0.23145721
   5         0.00389257
   6         0.35208884
   7        -1.61458486
   8        -0.02716124
   9        -2.45607734
  10         0.00025996
  11        -0.00025887
  12        -0.00000054
  13        -0.00895244
  14         0.00022891
  15        -0.01362155
  16         0.00000078
  17         0.00000839
  18        -0.00005577
  19        -0.23145990
  20        -0.00388968
  21        -0.35209405
  22         1.61460466
  23         0.02712718
  24         2.45611965
  25         0.00026261
  26        -0.00026204
  27         0.00000050
  28        -0.00895343
  29         0.00022896
  30        -0.01362431
  31         0.25463407
  32        -2.07164222
  33        -0.25463120
  34         2.07164222
  35        -0.25463223
  36         2.07169481
  37         0.25463235
  38        -2.07167540
Sym=    17a  
Ene=     4.3387
Spin= Alpha
Occup=    0.00000
   1         0.07725463
   2         0.87266290
   3        -2.66973957
   4        -0.00127925
   5         0.07607587
   6         0.00000007
   7         0.00925029
   8        -0.55022437
   9        -0.00000087
  10         0.23395023
  11         0.22705077
  12         0.20368654
  13         0.00013377
  14        -0.04046735
  15        -0.00068020
  16         0.07725281
  17         0.87264320
  18        -2.66965752
  19         0.00127970
  20        -0.07607327
  21        -0.00000001
  22        -0.00925349
  23         0.55022790
  24         0.00000356
  25         0.23394597
  26         0.22704719
  27         0.20368240
  28         0.00013408
  29        -0.04046586
  30        -0.00068042
  31        -0.18528782
  32         1.18654580
  33        -0.18528845
  34         1.18654682
  35        -0.18527724
  36         1.18652226
  37        -0.18527931
  38         1.18651841
Sym=    18a  
Ene=     4.3834
Spin= Alpha
Occup=    0.00000
   1        -0.05488034
   2        -0.57395521
   3         2.22295506
   4         0.00377455
   5        -0.22455828
   6         0.00000094
   7        -0.01961286
   8         1.16674223
   9        -0.00000493
  10        -0.12519790
  11        -0.26829034
  12        -0.06596140
  13         0.00277742
  14         0.07914889
  15         0.00132965
  16         0.05488339
  17         0.57398721
  18        -2.22303746
  19         0.00377626
  20        -0.22454798
  21         0.00000052
  22        -0.01962060
  23         1.16672688
  24         0.00000028
  25         0.12520608
  26         0.26830039
  27         0.06596852
  28        -0.00277753
  29        -0.07914881
  30        -0.00132985
  31         0.32982035
  32        -1.53836509
  33         0.32981326
  34        -1.53834873
  35        -0.32981092
  36         1.53837699
  37        -0.32982027
  38         1.53838959
Sym=    19a  
Ene=     4.3883
Spin= Alpha
Occup=    0.00000
   1        -0.00000037
   2        -0.00000372
   3         0.00001655
   4        -0.07410584
   5        -0.00124746
   6        -0.11272715
   7         0.42815338
   8         0.00720541
   9         0.65129506
  10        -0.00228611
  11         0.00228347
  12        -0.00000016
  13         0.07847394
  14        -0.00200648
  15         0.11940718
  16         0.00000078
  17         0.00000779
  18        -0.00003250
  19        -0.07410496
  20        -0.00124804
  21        -0.11272909
  22         0.42814884
  23         0.00720964
  24         0.65130013
  25         0.00228763
  26        -0.00228271
  27         0.00000069
  28        -0.07847298
  29         0.00200706
  30        -0.11940567
  31        -0.47182468
  32         1.23797816
  33         0.47183042
  34        -1.23800225
  35        -0.47182479
  36         1.23800851
  37         0.47182057
  38        -1.23797243
Sym=    20a  
Ene=     4.5042
Spin= Alpha
Occup=    0.00000
   1        -0.02169162
   2        -0.21240297
   3        -0.25559775
   4        -0.00658065
   5         0.39147674
   6         0.00000146
   7         0.01252416
   8        -0.74510362
   9        -0.00000471
  10        -0.08984078
  11        -0.14573182
  12        -0.15772688
  13         0.00108485
  14        -0.09078926
  15        -0.00152566
  16        -0.02168917
  17        -0.21237788
  18        -0.25569172
  19         0.00658205
  20        -0.39148562
  21        -0.00000185
  22        -0.01252582
  23         0.74512910
  24         0.00000683
  25        -0.08983390
  26        -0.14571797
  27        -0.15772262
  28         0.00108519
  29        -0.09079073
  30        -0.00152643
  31        -0.32923010
  32         0.55861550
  33        -0.32922895
  34         0.55861787
  35        -0.32923087
  36         0.55865799
  37        -0.32923095
  38         0.55864902
Sym=    21a  
Ene=     4.5410
Spin= Alpha
Occup=    0.00000
   1         0.00928766
   2         0.12911401
   3        -0.72593448
   4        -0.00748179
   5         0.44503113
   6        -0.00000085
   7         0.01519736
   8        -0.90393545
   9         0.00000107
  10         0.06442106
  11         0.01688113
  12         0.10158038
  13         0.00092309
  14         0.04966631
  15         0.00083484
  16         0.00928952
  17         0.12913408
  18        -0.72604635
  19         0.00748129
  20        -0.44503450
  21        -0.00000028
  22        -0.01519486
  23         0.90389858
  24         0.00000427
  25         0.06442459
  26         0.01688755
  27         0.10158339
  28         0.00092249
  29         0.04966482
  30         0.00083445
  31         0.36264563
  32         0.00857907
  33         0.36264603
  34         0.00857419
  35         0.36265182
  36         0.00858189
  37         0.36264842
  38         0.00857967
Sym=    22a  
Ene=     4.7107
Spin= Alpha
Occup=    0.00000
   1        -0.00000022
   2        -0.00000201
   3         0.00000777
   4         0.54758628
   5         0.00920561
   6        -0.36007385
   7        -1.06350689
   8        -0.01788179
   9         0.69932326
  10        -0.00260580
  11         0.00260431
  12        -0.00000055
  13         0.08946321
  14         0.00098884
  15        -0.05884480
  16         0.00000014
  17         0.00000160
  18        -0.00000898
  19        -0.54758515
  20        -0.00920671
  21         0.36007554
  22         1.06350279
  23         0.01787612
  24        -0.69932964
  25        -0.00260453
  26         0.00260677
  27         0.00000089
  28         0.08946325
  29         0.00098907
  30        -0.05884471
  31        -0.00000216
  32        -0.00000159
  33         0.00000028
  34         0.00000345
  35        -0.00000199
  36        -0.00000264
  37         0.00000046
  38         0.00000240
Sym=    23a  
Ene=     4.7407
Spin= Alpha
Occup=    0.00000
   1         0.08998900
   2         0.88418772
   3        -4.12197611
   4        -0.00194637
   5         0.11596324
   6         0.00000128
   7        -0.01885517
   8         1.12132741
   9        -0.00000155
  10         0.13232151
  11         0.25789366
  12         0.20128285
  13        -0.00243856
  14         0.09225384
  15         0.00155044
  16        -0.08998903
  17        -0.88418875
  18         4.12196169
  19        -0.00194830
  20         0.11594647
  21         0.00000217
  22        -0.01885118
  23         1.12136007
  24        -0.00001005
  25        -0.13231978
  26        -0.25789557
  27        -0.20128308
  28         0.00243920
  29        -0.09225329
  30        -0.00155042
  31         0.41458825
  32         0.06027006
  33         0.41458891
  34         0.06027710
  35        -0.41458820
  36        -0.06027199
  37        -0.41458494
  38        -0.06026181
Sym=    24a  
Ene=     4.8696
Spin= Alpha
Occup=    0.00000
   1         0.00000034
   2         0.00000318
   3        -0.00001591
   4        -0.36110130
   5        -0.00607002
   6        -0.54930467
   7         0.75213433
   8         0.01264851
   9         1.14413570
  10        -0.00188582
  11         0.00188739
  12         0.00000087
  13         0.06476013
  14        -0.00165624
  15         0.09853938
  16        -0.00000045
  17        -0.00000377
  18         0.00001160
  19        -0.36109943
  20        -0.00606864
  21        -0.54929669
  22         0.75213793
  23         0.01264973
  24         1.14414201
  25         0.00188508
  26        -0.00188787
  27        -0.00000178
  28        -0.06476104
  29         0.00165464
  30        -0.09854215
  31         0.20650579
  32         0.76306090
  33        -0.20650380
  34        -0.76306107
  35         0.20650553
  36         0.76307665
  37        -0.20650975
  38        -0.76306935
Sym=    25a  
Ene=     4.9062
Spin= Alpha
Occup=    0.00000
   1        -0.00000007
   2        -0.00000069
   3         0.00000379
   4         0.56510378
   5         0.00949861
   6        -0.37159626
   7        -0.53280964
   8        -0.00895613
   9         0.35036687
  10         0.00414143
  11        -0.00414156
  12        -0.00000013
  13        -0.14220783
  14        -0.00157228
  15         0.09353708
  16         0.00000019
  17         0.00000189
  18        -0.00000714
  19         0.56510585
  20         0.00949983
  21        -0.37159309
  22        -0.53281741
  23        -0.00895624
  24         0.35035506
  25        -0.00414194
  26         0.00414144
  27        -0.00000009
  28         0.14220725
  29         0.00157272
  30        -0.09353795
  31         0.00000132
  32        -0.00000035
  33        -0.00000165
  34        -0.00000123
  35        -0.00000007
  36         0.00000203
  37         0.00000290
  38         0.00000290
Sym=    26a  
Ene=     5.2357
Spin= Alpha
Occup=    0.00000
   1         0.00000015
   2         0.00000148
   3        -0.00001084
   4         0.24473592
   5         0.00411315
   6         0.37228227
   7        -1.77714472
   8        -0.02986536
   9        -2.70335648
  10        -0.00282714
  11         0.00282598
  12         0.00000168
  13         0.09701268
  14        -0.00248156
  15         0.14761391
  16        -0.00000018
  17        -0.00000107
  18         0.00000051
  19        -0.24473042
  20        -0.00411238
  21        -0.37228686
  22         1.77715376
  23         0.02988237
  24         2.70339146
  25        -0.00283139
  26         0.00282486
  27         0.00000438
  28         0.09701074
  29        -0.00248480
  30         0.14761533
  31        -0.59099081
  32        -0.97206509
  33         0.59099126
  34         0.97206360
  35         0.59099540
  36         0.97209703
  37        -0.59099614
  38        -0.97208480
Sym=    27a  
Ene=     5.6509
Spin= Alpha
Occup=    0.00000
   1        -0.00000010
   2        -0.00000100
   3         0.00000417
   4         0.00000111
   5        -0.00000009
   6         0.00000168
   7        -0.00001479
   8        -0.00000048
   9        -0.00002250
  10         0.54097353
  11         0.00015275
  12        -0.54112653
  13         0.01050081
  14         0.26973285
  15         0.00453473
  16         0.00000010
  17         0.00000100
  18        -0.00000417
  19        -0.00000236
  20        -0.00000015
  21        -0.00000360
  22         0.00001686
  23         0.00000005
  24         0.00002564
  25         0.54097232
  26         0.00015306
  27        -0.54112513
  28         0.01050302
  29         0.26973620
  30         0.00453819
  31        -0.00000558
  32        -0.00000902
  33         0.00000419
  34         0.00000775
  35         0.00000578
  36         0.00001180
  37        -0.00000439
  38        -0.00001053
Sym=    28a  
Ene=     5.6731
Spin= Alpha
Occup=    0.00000
   1        -0.00000006
   2        -0.00000057
   3         0.00000242
   4        -0.24300341
   5        -0.00408480
   6         0.15979295
   7         0.13847175
   8         0.00232725
   9        -0.09106994
  10         0.01456341
  11        -0.01456383
  12         0.00000030
  13        -0.50006587
  14        -0.00552829
  15         0.32892205
  16         0.00000001
  17        -0.00000009
  18        -0.00000019
  19        -0.24300502
  20        -0.00408489
  21         0.15979050
  22         0.13848590
  23         0.00232677
  24        -0.09104845
  25        -0.01456467
  26         0.01456389
  27         0.00000124
  28         0.50006762
  29         0.00553194
  30        -0.32891929
  31        -0.00000288
  32        -0.00000396
  33         0.00000206
  34         0.00000358
  35         0.00000275
  36         0.00000267
  37        -0.00000219
  38        -0.00000487
Sym=    29a  
Ene=     5.9749
Spin= Alpha
Occup=    0.00000
   1        -0.00000039
   2        -0.00000274
   3         0.00000740
   4        -0.00000014
   5         0.00000130
   6        -0.00000017
   7        -0.00000888