[Molden Format]
[N_Atoms]
                    2
[Atoms] (AU)
N1          1      7           0.00000000      0.00000000      0.00000000
N2          2      7           1.88972612      0.00000000      0.00000000
[Charge] (Mulliken)
   0.0000000000000000     
   0.0000000000000000     
[GTO] (AU)
   1
   s   6
  4.173511460E+03  1.834772160E-03
  6.274579110E+02  1.399462700E-02
  1.429020930E+02  6.858655181E-02
  4.023432930E+01  2.322408730E-01
  1.282021290E+01  4.690699481E-01
  4.390437010E+00  3.604551991E-01
   s   3
  1.162636186E+01 -1.149611817E-01
  2.716279807E+00 -1.691174786E-01
  7.722183966E-01  1.145851947E+00
   s   1
  2.120314975E-01  1.000000000E+00
   p   3
  1.162636186E+01  6.757974388E-02
  2.716279807E+00  3.239072959E-01
  7.722183966E-01  7.408951398E-01
   p   1
  2.120314975E-01  1.000000000E+00
   d   1
  8.000000000E-01  1.000000000E+00
 
   2
   s   6
  4.173511460E+03  1.834772160E-03
  6.274579110E+02  1.399462700E-02
  1.429020930E+02  6.858655181E-02
  4.023432930E+01  2.322408730E-01
  1.282021290E+01  4.690699481E-01
  4.390437010E+00  3.604551991E-01
   s   3
  1.162636186E+01 -1.149611817E-01
  2.716279807E+00 -1.691174786E-01
  7.722183966E-01  1.145851947E+00
   s   1
  2.120314975E-01  1.000000000E+00
   p   3
  1.162636186E+01  6.757974388E-02
  2.716279807E+00  3.239072959E-01
  7.722183966E-01  7.408951398E-01
   p   1
  2.120314975E-01  1.000000000E+00
   d   1
  8.000000000E-01  1.000000000E+00
 
[MO]
Sym=     1a  
Ene=   -15.6810
Spin= Alpha
Occup=    2.00000
   1         0.70136333
   2         0.01588529
   3         0.00326109
   4         0.00241467
   5         0.00000000
   6         0.00000000
   7         0.00140134
   8         0.00000000
   9        -0.00000000
  10         0.00000000
  11        -0.00000000
  12        -0.00000000
  13         0.00000000
  14        -0.00000000
  15        -0.00000000
  16         0.70136333
  17         0.01588529
  18         0.00326109
  19        -0.00241467
  20         0.00000000
  21         0.00000000
  22        -0.00140134
  23         0.00000000
  24         0.00000000
  25        -0.00000000
  26         0.00000000
  27         0.00000000
  28         0.00000000
  29        -0.00000000
  30         0.00000000
Sym=     2a  
Ene=   -15.6160
Spin= Alpha
Occup=    2.00000
   1        -0.70445532
   2        -0.01231622
   3         0.00054491
   4         0.00230594
   5         0.00000000
   6         0.00000000
   7         0.00133824
   8         0.00000000
   9         0.00000000
  10         0.00000000
  11        -0.00000000
  12        -0.00000000
  13         0.00000000
  14        -0.00000000
  15        -0.00000000
  16         0.70445532
  17         0.01231622
  18        -0.00054491
  19         0.00230594
  20         0.00000000
  21         0.00000000
  22         0.00133824
  23        -0.00000000
  24        -0.00000000
  25         0.00000000
  26         0.00000000
  27         0.00000000
  28         0.00000000
  29        -0.00000000
  30         0.00000000
Sym=     3a  
Ene=    -1.5602
Spin= Alpha
Occup=    2.00000
   1        -0.18272737
   2         0.26919794
   3         0.28610240
   4         0.11060498
   5         0.00000000
   6         0.00000000
   7         0.06418904
   8         0.00000000
   9        -0.00000000
  10        -0.00000000
  11        -0.00000000
  12        -0.00000000
  13        -0.00000000
  14         0.00000000
  15        -0.00000000
  16        -0.18272737
  17         0.26919794
  18         0.28610240
  19        -0.11060498
  20        -0.00000000
  21        -0.00000000
  22        -0.06418904
  23        -0.00000000
  24         0.00000000
  25         0.00000000
  26         0.00000000
  27         0.00000000
  28        -0.00000000
  29         0.00000000
  30        -0.00000000
Sym=     4a  
Ene=    -0.8064
Spin= Alpha
Occup=    2.00000
   1         0.13765870
   2        -0.28563393
   3        -0.30249505
   4         0.30134335
   5        -0.00000000
   6        -0.00000000
   7         0.17488307
   8        -0.00000000
   9        -0.00000000
  10        -0.00000000
  11         0.00000000
  12         0.00000000
  13         0.00000000
  14        -0.00000000
  15         0.00000000
  16        -0.13765870
  17         0.28563393
  18         0.30249505
  19         0.30134335
  20        -0.00000000
  21        -0.00000000
  22         0.17488307
  23        -0.00000000
  24        -0.00000000
  25        -0.00000000
  26        -0.00000000
  27        -0.00000000
  28         0.00000000
  29        -0.00000000
  30        -0.00000000
Sym=     5a  
Ene=    -0.7863
Spin= Alpha
Occup=    2.00000
   1         0.00000000
   2         0.00000000
   3        -0.00000000
   4         0.00000000
   5        -0.24848415
   6         0.35387964
   7        -0.00000000
   8        -0.14420650
   9         0.20537224
  10        -0.00000000
  11         0.00000000
  12         0.00000000
  13        -0.00000000
  14        -0.00000000
  15        -0.00000000
  16        -0.00000000
  17         0.00000000
  18         0.00000000
  19        -0.00000000
  20        -0.24848415
  21         0.35387964
  22        -0.00000000
  23        -0.14420650
  24         0.20537224
  25         0.00000000
  26        -0.00000000
  27        -0.00000000
  28        -0.00000000
  29        -0.00000000
  30        -0.00000000
Sym=     6a  
Ene=    -0.7863
Spin= Alpha
Occup=    2.00000
   1         0.00000000
   2         0.00000000
   3        -0.00000000
   4        -0.00000000
   5         0.35387964
   6         0.24848415
   7        -0.00000000
   8         0.20537224
   9         0.14420650
  10        -0.00000000
  11         0.00000000
  12         0.00000000
  13        -0.00000000
  14        -0.00000000
  15         0.00000000
  16        -0.00000000
  17         0.00000000
  18         0.00000000
  19        -0.00000000
  20         0.35387964
  21         0.24848415
  22         0.00000000
  23         0.20537224
  24         0.14420650
  25         0.00000000
  26         0.00000000
  27         0.00000000
  28        -0.00000000
  29         0.00000000
  30         0.00000000
Sym=     7a  
Ene=    -0.5420
Spin= Alpha
Occup=    2.00000
   1        -0.01890645
   2         0.17876220
   3         0.18802835
   4        -0.48565161
   5        -0.00000000
   6        -0.00000000
   7        -0.28184542
   8        -0.00000000
   9        -0.00000000
  10        -0.00000000
  11         0.00000000
  12         0.00000000
  13         0.00000000
  14        -0.00000000
  15         0.00000000
  16        -0.01890645
  17         0.17876220
  18         0.18802835
  19         0.48565161
  20         0.00000000
  21         0.00000000
  22         0.28184542
  23        -0.00000000
  24         0.00000000
  25         0.00000000
  26         0.00000000
  27         0.00000000
  28         0.00000000
  29        -0.00000000
  30        -0.00000000
Sym=     8a  
Ene=    -0.3543
Spin= Alpha
Occup=    0.00000
   1         0.00000000
   2         0.00000000
   3        -0.00000000
   4         0.00000000
   5        -0.02581156
   6        -0.64365784
   7        -0.00000000
   8        -0.01497961
   9        -0.37354353
  10         0.00000000
  11         0.00000000
  12         0.00000000
  13         0.00000000
  14        -0.00000000
  15        -0.00000000
  16        -0.00000000
  17         0.00000000
  18         0.00000000
  19         0.00000000
  20         0.02581156
  21         0.64365784
  22        -0.00000000
  23         0.01497961
  24         0.37354353
  25        -0.00000000
  26        -0.00000000
  27        -0.00000000
  28         0.00000000
  29         0.00000000
  30        -0.00000000
Sym=     9a  
Ene=    -0.3543
Spin= Alpha
Occup=    0.00000
   1        -0.00000000
   2        -0.00000000
   3         0.00000000
   4         0.00000000
   5        -0.64365784
   6         0.02581156
   7         0.00000000
   8        -0.37354353
   9         0.01497961
  10        -0.00000000
  11        -0.00000000
  12        -0.00000000
  13        -0.00000000
  14        -0.00000000
  15         0.00000000
  16         0.00000000
  17         0.00000000
  18        -0.00000000
  19        -0.00000000
  20         0.64365784
  21        -0.02581156
  22         0.00000000
  23         0.37354353
  24        -0.01497961
  25         0.00000000
  26         0.00000000
  27         0.00000000
  28         0.00000000
  29        -0.00000000
  30         0.00000000
Sym=    10a  
Ene=    -0.0928
Spin= Alpha
Occup=    0.00000
   1        -0.09769661
   2         0.84434071
   3         0.88826779
   4         0.89105326
   5         0.00000000
   6         0.00000000
   7         0.51711819
   8        -0.00000000
   9        -0.00000000
  10        -0.00000000
  11         0.00000000
  12         0.00000000
  13         0.00000000
  14         0.00000000
  15        -0.00000000
  16         0.09769661
  17        -0.84434071
  18        -0.88826779
  19         0.89105326
  20        -0.00000000
  21        -0.00000000
  22         0.51711819
  23         0.00000000
  24        -0.00000000
  25         0.00000000
  26        -0.00000000
  27        -0.00000000
  28         0.00000000
  29         0.00000000
  30         0.00000000
Sym=    11a  
Ene=     4.1700
Spin= Alpha
Occup=    0.00000
   1         0.02676221
   2         0.27826841
   3        -8.42866345
   4         0.06932353
   5         0.00000000
   6         0.00000000
   7        -4.40506492
   8        -0.00000000
   9         0.00000000
  10        -0.44977156
  11         0.14657919
  12         0.14657919
  13        -0.00000000
  14         0.00000000
  15        -0.00000000
  16        -0.02676221
  17        -0.27826841
  18         8.42866345
  19         0.06932353
  20        -0.00000000
  21         0.00000000
  22        -4.40506492
  23         0.00000000
  24        -0.00000000
  25         0.44977156
  26        -0.14657919
  27        -0.14657919
  28        -0.00000000
  29         0.00000000
  30         0.00000000
Sym=    12a  
Ene=     4.3644
Spin= Alpha
Occup=    0.00000
   1         0.06282276
   2         0.63538310
   3        -1.22540565
   4        -0.01385503
   5        -0.00000000
   6        -0.00000000
   7        -0.31042395
   8         0.00000000
   9         0.00000000
  10         0.35405982
  11         0.40452199
  12         0.40452199
  13         0.00000000
  14         0.00000000
  15        -0.00000000
  16         0.06282276
  17         0.63538310
  18        -1.22540565
  19         0.01385503
  20         0.00000000
  21         0.00000000
  22         0.31042395
  23        -0.00000000
  24        -0.00000000
  25         0.35405982
  26         0.40452199
  27         0.40452199
  28        -0.00000000
  29         0.00000000
  30        -0.00000000
Sym=    13a  
Ene=     4.8453
Spin= Alpha
Occup=    0.00000
   1         0.12418400
   2         1.14617386
   3        -7.15469426
   4        -0.05754130
   5         0.00000000
   6        -0.00000000
   7        -2.40395565
   8        -0.00000000
   9         0.00000000
  10         0.52557309
  11         0.29586752
  12         0.29586752
  13        -0.00000000
  14         0.00000000
  15        -0.00000000
  16        -0.12418400
  17        -1.14617386
  18         7.15469426
  19        -0.05754130
  20        -0.00000000
  21         0.00000000
  22        -2.40395565
  23         0.00000000
  24        -0.00000000
  25        -0.52557309
  26        -0.29586752
  27        -0.29586752
  28        -0.00000000
  29         0.00000000
  30         0.00000000
Sym=    14a  
Ene=     4.8784
Spin= Alpha
Occup=    0.00000
   1         0.00000000
   2         0.00000000
   3        -0.00000000
   4        -0.00000000
   5        -0.08335816
   6         0.44156512
   7        -0.00000000
   8         0.27908122
   9        -1.47835003
  10         0.00000000
  11         0.00000000
  12         0.00000000
  13         0.07373742
  14        -0.39060212
  15         0.00000000
  16        -0.00000000
  17        -0.00000000
  18         0.00000000
  19        -0.00000000
  20         0.08335816
  21        -0.44156512
  22        -0.00000000
  23        -0.27908122
  24         1.47835003
  25        -0.00000000
  26        -0.00000000
  27        -0.00000000
  28         0.07373742
  29        -0.39060212
  30         0.00000000
Sym=    15a  
Ene=     4.8784
Spin= Alpha
Occup=    0.00000
   1        -0.00000000
   2        -0.00000000
   3         0.00000000
   4        -0.00000000
   5         0.44156512
   6         0.08335816
   7         0.00000000
   8        -1.47835003
   9        -0.27908122
  10        -0.00000000
  11        -0.00000000
  12        -0.00000000
  13        -0.39060212
  14        -0.07373742
  15        -0.00000000
  16         0.00000000
  17         0.00000000
  18        -0.00000000
  19         0.00000000
  20        -0.44156512
  21        -0.08335816
  22         0.00000000
  23         1.47835003
  24         0.27908122
  25         0.00000000
  26         0.00000000
  27         0.00000000
  28        -0.39060212
  29        -0.07373742
  30        -0.00000000
Sym=    16a  
Ene=     4.9250
Spin= Alpha
Occup=    0.00000
   1         0.01070199
   2         0.10679907
   3         0.39961695
   4         0.55137525
   5         0.00000000
   6         0.00000000
   7        -1.04050262
   8        -0.00000000
   9        -0.00000000
  10        -0.13546657
  11        -0.06196028
  12        -0.06196028
  13        -0.00000000
  14         0.00000000
  15        -0.00000000
  16         0.01070199
  17         0.10679907
  18         0.39961695
  19        -0.55137525
  20        -0.00000000
  21         0.00000000
  22         1.04050262
  23         0.00000000
  24        -0.00000000
  25        -0.13546657
  26        -0.06196028
  27        -0.06196028
  28        -0.00000000
  29        -0.00000000
  30         0.00000000
Sym=    17a  
Ene=     5.2991
Spin= Alpha
Occup=    0.00000
   1         0.00000000
   2         0.00000000
   3        -0.00000000
   4         0.00000000
   5         0.14560984
   6        -0.47588464
   7        -0.00000000
   8        -0.15769483
   9         0.51538100
  10         0.00000000
  11         0.00000000
  12         0.00000000
  13         0.08352880
  14        -0.27299029
  15         0.00000000
  16        -0.00000000
  17        -0.00000000
  18         0.00000000
  19        -0.00000000
  20         0.14560984
  21        -0.47588464
  22        -0.00000000
  23        -0.15769483
  24         0.51538100
  25        -0.00000000
  26        -0.00000000
  27        -0.00000000
  28        -0.08352880
  29         0.27299029
  30         0.00000000
Sym=    18a  
Ene=     5.2991
Spin= Alpha
Occup=    0.00000
   1        -0.00000000
   2        -0.00000000
   3         0.00000000
   4         0.00000000
   5        -0.47588464
   6        -0.14560984
   7         0.00000000
   8         0.51538100
   9         0.15769483
  10        -0.00000000
  11         0.00000000
  12        -0.00000000
  13        -0.27299029
  14        -0.08352880
  15        -0.00000000
  16         0.00000000
  17         0.00000000
  18        -0.00000000
  19        -0.00000000
  20        -0.47588464
  21        -0.14560984
  22         0.00000000
  23         0.51538100
  24         0.15769483
  25         0.00000000
  26         0.00000000
  27        -0.00000000
  28         0.27299029
  29         0.08352880
  30        -0.00000000
Sym=    19a  
Ene=     5.5791
Spin= Alpha
Occup=    0.00000
   1         0.00000000
   2         0.00000000
   3         0.00000000
   4        -0.00000000
   5        -0.00000000
   6        -0.00000000
   7         0.00000000
   8         0.00000000
   9         0.00000000
  10         0.00000000
  11        -0.54999634
  12         0.54999634
  13        -0.00000000
  14         0.00000000
  15        -0.00000000
  16        -0.00000000
  17         0.00000000
  18        -0.00000000
  19        -0.00000000
  20        -0.00000000
  21         0.00000000
  22         0.00000000
  23         0.00000000
  24        -0.00000000
  25        -0.00000000
  26        -0.54999634
  27         0.54999634
  28         0.00000000
  29         0.00000000
  30        -0.00000000
Sym=    20a  
Ene=     5.5791
Spin= Alpha
Occup=    0.00000
   1        -0.00000000
   2        -0.00000000
   3        -0.00000000
   4        -0.00000000
   5         0.00000000
   6        -0.00000000
   7        -0.00000000
   8        -0.00000000
   9         0.00000000
  10        -0.00000000
  11        -0.00000000
  12         0.00000000
  13        -0.00000000
  14         0.00000000
  15         0.63508107
  16         0.00000000
  17         0.00000000
  18         0.00000000
  19         0.00000000
  20        -0.00000000
  21         0.00000000
  22        -0.00000000
  23         0.00000000
  24        -0.00000000
  25         0.00000000
  26        -0.00000000
  27         0.00000000
  28        -0.00000000
  29         0.00000000
  30         0.63508107
Sym=    21a  
Ene=     6.1602
Spin= Alpha
Occup=    0.00000
   1        -0.00000000
   2         0.00000000
   3        -0.00000000
   4        -0.00000000
   5        -0.00000000
   6         0.00000000
   7        -0.00000000
   8         0.00000000
   9        -0.00000000
  10        -0.00000000
  11         0.70229425
  12        -0.70229425
  13         0.00000000
  14        -0.00000000
  15         0.00000000
  16        -0.00000000
  17        -0.00000000
  18         0.00000000
  19        -0.00000000
  20        -0.00000000
  21         0.00000000
  22        -0.00000000
  23         0.00000000
  24        -0.00000000
  25         0.00000000
  26        -0.70229425
  27         0.70229425
  28        -0.00000000
  29         0.00000000
  30        -0.00000000
Sym=    22a  
Ene=     6.1602
Spin= Alpha
Occup=    0.00000
   1         0.00000000
   2        -0.00000000
   3         0.00000000
   4         0.00000000
   5        -0.00000000
   6        -0.00000000
   7         0.00000000
   8        -0.00000000
   9         0.00000000
  10         0.00000000
  11        -0.00000000
  12        -0.00000000
  13        -0.00000000
  14         0.00000000
  15        -0.81093955
  16        -0.00000000
  17         0.00000000
  18        -0.00000000
  19         0.00000000
  20        -0.00000000
  21        -0.00000000
  22         0.00000000
  23         0.00000000
  24         0.00000000
  25        -0.00000000
  26         0.00000000
  27         0.00000000
  28        -0.00000000
  29        -0.00000000
  30         0.81093955
Sym=    23a  
Ene=     6.2357
Spin= Alpha
Occup=    0.00000
   1        -0.00000000
   2        -0.00000000
   3         0.00000000
   4        -0.00000000
   5        -0.10254983
   6         0.47261806
   7         0.00000000
   8         0.06227315
   9        -0.28699623
  10        -0.00000000
  11        -0.00000000
  12         0.00000000
  13         0.11496829
  14        -0.52985058
  15        -0.00000000
  16         0.00000000
  17         0.00000000
  18        -0.00000000
  19         0.00000000
  20        -0.10254983
  21         0.47261806
  22         0.00000000
  23         0.06227315
  24        -0.28699623
  25        -0.00000000
  26         0.00000000
  27        -0.00000000
  28        -0.11496829
  29         0.52985058
  30         0.00000000
Sym=    24a  
Ene=     6.2357
Spin= Alpha
Occup=    0.00000
   1         0.00000000
   2         0.00000000
   3         0.00000000
   4         0.00000000
   5         0.47261806
   6         0.10254983
   7         0.00000000
   8        -0.28699623
   9        -0.06227315
  10        -0.00000000
  11         0.00000000
  12        -0.00000000
  13        -0.52985058
  14        -0.11496829
  15        -0.00000000
  16         0.00000000
  17        -0.00000000
  18        -0.00000000
  19        -0.00000000
  20         0.47261806
  21         0.10254983
  22         0.00000000
  23        -0.28699623
  24        -0.06227315
  25        -0.00000000
  26        -0.00000000
  27         0.00000000
  28         0.52985058
  29         0.11496829
  30         0.00000000
Sym=    25a  
Ene=     7.0569
Spin= Alpha
Occup=    0.00000
   1         0.09555487
   2         0.73575925
   3        -0.20523736
   4         0.25445255
   5        -0.00000000
   6        -0.00000000
   7        -0.56546806
   8        -0.00000000
   9        -0.00000000
  10        -0.99712407
  11         0.41882040
  12         0.41882040
  13        -0.00000000
  14        -0.00000000
  15         0.00000000
  16         0.09555487
  17         0.73575925
  18        -0.20523736
  19        -0.25445255
  20        -0.00000000
  21         0.00000000
  22         0.56546806
  23         0.00000000
  24         0.00000000
  25        -0.99712407
  26         0.41882040
  27         0.41882040
  28        -0.00000000
  29        -0.00000000
  30        -0.00000000
Sym=    26a  
Ene=     7.3072
Spin= Alpha
Occup=    0.00000
   1         0.00000000
   2         0.00000000
   3         0.00000000
   4         0.00000000
   5        -0.15120752
   6         0.51450354
   7        -0.00000000
   8        -0.04647681
   9         0.15814348
  10        -0.00000000
  11         0.00000000
  12         0.00000000
  13        -0.32998443
  14         1.12281560
  15        -0.00000000
  16         0.00000000
  17         0.00000000
  18        -0.00000000
  19        -0.00000000
  20         0.15120752
  21        -0.51450354
  22         0.00000000
  23         0.04647681
  24        -0.15814348
  25        -0.00000000
  26         0.00000000
  27         0.00000000
  28        -0.32998443
  29         1.12281560
  30        -0.00000000
Sym=    27a  
Ene=     7.3072
Spin= Alpha
Occup=    0.00000
   1         0.00000000
   2         0.00000000
   3         0.00000000
   4         0.00000000
   5         0.51450354
   6         0.15120752
   7         0.00000000
   8         0.15814348
   9         0.04647681
  10         0.00000000
  11        -0.00000000
  12        -0.00000000
  13         1.12281560
  14         0.32998443
  15         0.00000000
  16         0.00000000
  17         0.00000000
  18        -0.00000000
  19         0.00000000
  20        -0.51450354
  21        -0.15120752
  22         0.00000000
  23        -0.15814348
  24        -0.04647681
  25        -0.00000000
  26         0.00000000
  27         0.00000000
  28         1.12281560
  29         0.32998443
  30         0.00000000
Sym=    28a  
Ene=     8.9571
Spin= Alpha
Occup=    0.00000
   1         0.00574578
   2        -0.83425141
   3        -3.88085971
   4        -1.13726489
   5         0.00000000
   6         0.00000000
   7        -1.55401482
   8        -0.00000000
   9        -0.00000000
  10        -0.98369884
  11         0.76328928
  12         0.76328928
  13         0.00000000
  14         0.00000000
  15        -0.00000000
  16        -0.00574578
  17         0.83425141
  18         3.88085971
  19        -1.13726489
  20        -0.00000000
  21        -0.00000000
  22        -1.55401482
  23        -0.00000000
  24        -0.00000000
  25         0.98369884
  26        -0.76328928
  27        -0.76328928
  28         0.00000000
  29         0.00000000
  30         0.00000000
Sym=    29a  
Ene=    11.6330
Spin= Alpha
Occup=    0.00000
   1         0.24132933
   2        -1.39473207
   3        -0.62827060
   4        -0.00570721
   5        -0.00000000
   6        -0.00000000
   7        -0.10380652
   8        -0.00000000
   9         0.00000000
  10         0.92698696
  11         0.85487321
  12         0.85487321
  13        -0.00000000
  14         0.00000000
  15        -0.00000000
  16         0.24132933
  17        -1.39473207
  18        -0.62827060
  19         0.00570721
  20         0.00000000
  21         0.00000000
  22         0.10380652
  23        -0.00000000
  24        -0.00000000
  25         0.92698696
  26         0.85487321
  27         0.85487321
  28        -0.00000000
  29         0.00000000
  30        -0.00000000
Sym=    30a  
Ene=    13.4190
Spin= Alpha
Occup=    0.00000
   1         0.37294734
   2        -0.36096318
   3        -3.69658500
   4         0.79829889
   5        -0.00000000
   6         0.00000000
   7        -1.16366738
   8         0.00000000
   9         0.00000000
  10         1.33823969
  11         0.93173418
  12         0.93173418
  13         0.00000000
  14         0.00000000
  15        -0.00000000
  16        -0.37294734
  17         0.36096318
  18         3.69658500
  19         0.79829889
  20         0.00000000
  21        -0.00000000
  22        -1.16366738
  23        -0.00000000
  24        -0.00000000
  25        -1.33823969
  26        -0.93173418
  27        -0.93173418
  28         0.00000000
  29         0.00000000
  30         0.00000000
