[Molden Format]
[N_Atoms]
                    2
[Atoms] (AU)
N1          1      7          -0.07405249      0.00000000      0.00000000
N2          2      7           1.96377861      0.00000000      0.00000000
[Charge] (Mulliken)
   1.3145040611561853E-013
  -1.4299672557172016E-013
[GTO] (AU)
   1
   s   6
  4.173511460E+03  1.834772160E-03
  6.274579110E+02  1.399462700E-02
  1.429020930E+02  6.858655181E-02
  4.023432930E+01  2.322408730E-01
  1.282021290E+01  4.690699481E-01
  4.390437010E+00  3.604551991E-01
   s   3
  1.162636186E+01 -1.149611817E-01
  2.716279807E+00 -1.691174786E-01
  7.722183966E-01  1.145851947E+00
   s   1
  2.120314975E-01  1.000000000E+00
   p   3
  1.162636186E+01  6.757974388E-02
  2.716279807E+00  3.239072959E-01
  7.722183966E-01  7.408951398E-01
   p   1
  2.120314975E-01  1.000000000E+00
   d   1
  8.000000000E-01  1.000000000E+00
 
   2
   s   6
  4.173511460E+03  1.834772160E-03
  6.274579110E+02  1.399462700E-02
  1.429020930E+02  6.858655181E-02
  4.023432930E+01  2.322408730E-01
  1.282021290E+01  4.690699481E-01
  4.390437010E+00  3.604551991E-01
   s   3
  1.162636186E+01 -1.149611817E-01
  2.716279807E+00 -1.691174786E-01
  7.722183966E-01  1.145851947E+00
   s   1
  2.120314975E-01  1.000000000E+00
   p   3
  1.162636186E+01  6.757974388E-02
  2.716279807E+00  3.239072959E-01
  7.722183966E-01  7.408951398E-01
   p   1
  2.120314975E-01  1.000000000E+00
   d   1
  8.000000000E-01  1.000000000E+00
 
[MO]
Sym=     1a  
Ene=   -15.6910
Spin= Alpha
Occup=    2.00000
   1         0.70332104
   2         0.01695580
   3         0.00032001
   4         0.00148455
   5        -0.00000000
   6         0.00000000
   7        -0.00043262
   8         0.00000000
   9        -0.00000000
  10        -0.00203987
  11        -0.00273182
  12        -0.00273182
  13        -0.00000000
  14        -0.00000000
  15        -0.00000000
  16         0.70332104
  17         0.01695580
  18         0.00032001
  19        -0.00148455
  20        -0.00000000
  21        -0.00000000
  22         0.00043262
  23         0.00000000
  24         0.00000000
  25        -0.00203987
  26        -0.00273182
  27        -0.00273182
  28         0.00000000
  29        -0.00000000
  30         0.00000000
Sym=     2a  
Ene=   -15.6870
Spin= Alpha
Occup=    2.00000
   1        -0.70399536
   2        -0.01741836
   3         0.00102100
   4        -0.00244613
   5         0.00000000
   6        -0.00000000
   7         0.00037096
   8         0.00000000
   9        -0.00000000
  10         0.00064992
  11         0.00262925
  12         0.00262925
  13         0.00000000
  14        -0.00000000
  15        -0.00000000
  16         0.70399536
  17         0.01741836
  18        -0.00102100
  19        -0.00244613
  20        -0.00000000
  21         0.00000000
  22         0.00037096
  23        -0.00000000
  24         0.00000000
  25        -0.00064992
  26        -0.00262925
  27        -0.00262925
  28         0.00000000
  29         0.00000000
  30         0.00000000
Sym=     3a  
Ene=    -1.4882
Spin= Alpha
Occup=    2.00000
   1        -0.16104618
   2         0.33667132
   3         0.18074485
   4         0.22458516
   5         0.00000000
   6         0.00000000
   7         0.03336483
   8        -0.00000000
   9        -0.00000000
  10         0.03096172
  11        -0.01196975
  12        -0.01196975
  13         0.00000000
  14         0.00000000
  15        -0.00000000
  16        -0.16104618
  17         0.33667132
  18         0.18074485
  19        -0.22458516
  20         0.00000000
  21         0.00000000
  22        -0.03336483
  23        -0.00000000
  24        -0.00000000
  25         0.03096172
  26        -0.01196975
  27        -0.01196975
  28         0.00000000
  29         0.00000000
  30        -0.00000000
Sym=     4a  
Ene=    -0.7700
Spin= Alpha
Occup=    2.00000
   1         0.14579084
   2        -0.32940806
   3        -0.49010893
   4         0.22494246
   5         0.00000000
   6         0.00000000
   7         0.08178109
   8         0.00000000
   9         0.00000000
  10         0.01725516
  11        -0.00171278
  12        -0.00171278
  13         0.00000000
  14        -0.00000000
  15        -0.00000000
  16        -0.14579084
  17         0.32940806
  18         0.49010893
  19         0.22494246
  20         0.00000000
  21        -0.00000000
  22         0.08178109
  23         0.00000000
  24        -0.00000000
  25        -0.01725516
  26         0.00171278
  27         0.00171278
  28        -0.00000000
  29        -0.00000000
  30        -0.00000000
Sym=     5a  
Ene=    -0.6316
Spin= Alpha
Occup=    2.00000
   1        -0.05458719
   2         0.10699048
   3         0.33525280
   4        -0.45810825
   5        -0.00000000
   6        -0.00000000
   7        -0.20030339
   8         0.00000000
   9        -0.00000000
  10        -0.02989837
  11         0.00708982
  12         0.00708982
  13        -0.00000000
  14        -0.00000000
  15         0.00000000
  16        -0.05458719
  17         0.10699048
  18         0.33525280
  19         0.45810825
  20         0.00000000
  21        -0.00000000
  22         0.20030339
  23        -0.00000000
  24        -0.00000000
  25        -0.02989837
  26         0.00708982
  27         0.00708982
  28         0.00000000
  29        -0.00000000
  30        -0.00000000
Sym=     6a  
Ene=    -0.6201
Spin= Alpha
Occup=    2.00000
   1        -0.00000000
   2         0.00000000
   3         0.00000000
   4        -0.00000000
   5         0.43500339
   6         0.00155968
   7         0.00000000
   8         0.24458953
   9         0.00087696
  10        -0.00000000
  11        -0.00000000
  12        -0.00000000
  13         0.04819442
  14         0.00017280
  15         0.00000000
  16         0.00000000
  17        -0.00000000
  18        -0.00000000
  19        -0.00000000
  20         0.43500339
  21         0.00155968
  22         0.00000000
  23         0.24458953
  24         0.00087696
  25         0.00000000
  26         0.00000000
  27         0.00000000
  28        -0.04819442
  29        -0.00017280
  30         0.00000000
Sym=     7a  
Ene=    -0.6201
Spin= Alpha
Occup=    2.00000
   1         0.00000000
   2         0.00000000
   3        -0.00000000
   4        -0.00000000
   5        -0.00155968
   6         0.43500339
   7        -0.00000000
   8        -0.00087696
   9         0.24458953
  10        -0.00000000
  11         0.00000000
  12         0.00000000
  13        -0.00017280
  14         0.04819442
  15         0.00000000
  16        -0.00000000
  17         0.00000000
  18         0.00000000
  19         0.00000000
  20        -0.00155968
  21         0.43500339
  22        -0.00000000
  23        -0.00087696
  24         0.24458953
  25        -0.00000000
  26        -0.00000000
  27        -0.00000000
  28         0.00017280
  29        -0.04819442
  30        -0.00000000
Sym=     8a  
Ene=     0.1808
Spin= Alpha
Occup=    0.00000
   1        -0.00000000
   2         0.00000000
   3        -0.00000000
   4         0.00000000
   5        -0.43108876
   6        -0.00009486
   7        -0.00000000
   8        -0.69789437
   9        -0.00015356
  10        -0.00000000
  11         0.00000000
  12         0.00000000
  13         0.01331275
  14         0.00000293
  15        -0.00000000
  16         0.00000000
  17         0.00000000
  18         0.00000000
  19        -0.00000000
  20         0.43108876
  21         0.00009486
  22        -0.00000000
  23         0.69789437
  24         0.00015356
  25        -0.00000000
  26         0.00000000
  27         0.00000000
  28         0.01331275
  29         0.00000293
  30         0.00000000
Sym=     9a  
Ene=     0.1808
Spin= Alpha
Occup=    0.00000
   1         0.00000000
   2        -0.00000000
   3        -0.00000000
   4         0.00000000
   5         0.00009486
   6        -0.43108876
   7         0.00000000
   8         0.00015356
   9        -0.69789437
  10         0.00000000
  11        -0.00000000
  12         0.00000000
  13        -0.00000293
  14         0.01331275
  15        -0.00000000
  16        -0.00000000
  17        -0.00000000
  18        -0.00000000
  19        -0.00000000
  20        -0.00009486
  21         0.43108876
  22         0.00000000
  23        -0.00015356
  24         0.69789437
  25         0.00000000
  26         0.00000000
  27         0.00000000
  28        -0.00000293
  29         0.01331275
  30        -0.00000000
Sym=    10a  
Ene=     0.5914
Spin= Alpha
Occup=    0.00000
   1        -0.09050431
   2         0.20473642
   3         4.42082362
   4         0.04354418
   5        -0.00000000
   6         0.00000000
   7         2.84991172
   8         0.00000000
   9        -0.00000000
  10         0.08752331
  11        -0.00428848
  12        -0.00428848
  13         0.00000000
  14        -0.00000000
  15        -0.00000000
  16         0.09050431
  17        -0.20473642
  18        -4.42082362
  19         0.04354418
  20         0.00000000
  21        -0.00000000
  22         2.84991172
  23         0.00000000
  24         0.00000000
  25        -0.08752331
  26         0.00428848
  27         0.00428848
  28         0.00000000
  29         0.00000000
  30        -0.00000000
Sym=    11a  
Ene=     0.7691
Spin= Alpha
Occup=    0.00000
   1         0.02964361
   2         0.51778534
   3        -0.40350546
   4         0.32183040
   5         0.00000000
   6         0.00000000
   7        -0.87820834
   8        -0.00000000
   9        -0.00000000
  10         0.16307209
  11         0.07137756
  12         0.07137756
  13        -0.00000000
  14        -0.00000000
  15         0.00000000
  16         0.02964361
  17         0.51778534
  18        -0.40350546
  19        -0.32183040
  20        -0.00000000
  21         0.00000000
  22         0.87820834
  23         0.00000000
  24        -0.00000000
  25         0.16307209
  26         0.07137756
  27         0.07137756
  28         0.00000000
  29        -0.00000000
  30         0.00000000
Sym=    12a  
Ene=     0.8310
Spin= Alpha
Occup=    0.00000
   1         0.00000000
   2        -0.00000000
   3         0.00000000
   4         0.00000000
   5        -0.00650082
   6        -0.62733401
   7        -0.00000000
   8         0.00641501
   9         0.61905397
  10        -0.00000000
  11        -0.00000000
  12        -0.00000000
  13        -0.00104970
  14        -0.10129675
  15         0.00000000
  16         0.00000000
  17        -0.00000000
  18         0.00000000
  19        -0.00000000
  20        -0.00650082
  21        -0.62733401
  22         0.00000000
  23         0.00641501
  24         0.61905397
  25        -0.00000000
  26        -0.00000000
  27        -0.00000000
  28         0.00104970
  29         0.10129675
  30         0.00000000
Sym=    13a  
Ene=     0.8310
Spin= Alpha
Occup=    0.00000
   1        -0.00000000
   2         0.00000000
   3        -0.00000000
   4        -0.00000000
   5        -0.62733401
   6         0.00650082
   7         0.00000000
   8         0.61905397
   9        -0.00641501
  10         0.00000000
  11        -0.00000000
  12         0.00000000
  13        -0.10129675
  14         0.00104970
  15        -0.00000000
  16        -0.00000000
  17         0.00000000
  18        -0.00000000
  19         0.00000000
  20        -0.62733401
  21         0.00650082
  22        -0.00000000
  23         0.61905397
  24        -0.00641501
  25         0.00000000
  26         0.00000000
  27         0.00000000
  28         0.10129675
  29        -0.00104970
  30        -0.00000000
Sym=    14a  
Ene=     0.8386
Spin= Alpha
Occup=    0.00000
   1        -0.00665888
   2         0.66643639
   3        -1.02347209
   4        -0.40939509
   5         0.00000000
   6        -0.00000000
   7         0.45708804
   8        -0.00000000
   9         0.00000000
  10         0.17666390
  11         0.16170315
  12         0.16170315
  13         0.00000000
  14        -0.00000000
  15        -0.00000000
  16        -0.00665888
  17         0.66643639
  18        -1.02347209
  19         0.40939509
  20         0.00000000
  21        -0.00000000
  22        -0.45708804
  23        -0.00000000
  24         0.00000000
  25         0.17666390
  26         0.16170315
  27         0.16170315
  28        -0.00000000
  29         0.00000000
  30        -0.00000000
Sym=    15a  
Ene=     1.0194
Spin= Alpha
Occup=    0.00000
   1        -0.00000000
   2         0.00000000
   3        -0.00000000
   4        -0.00000000
   5        -0.00131540
   6         0.72878327
   7        -0.00000000
   8         0.00213590
   9        -1.18337172
  10         0.00000000
  11         0.00000000
  12         0.00000000
  13         0.00014421
  14        -0.07989913
  15         0.00000000
  16        -0.00000000
  17        -0.00000000
  18         0.00000000
  19        -0.00000000
  20         0.00131540
  21        -0.72878327
  22        -0.00000000
  23        -0.00213590
  24         1.18337172
  25        -0.00000000
  26        -0.00000000
  27        -0.00000000
  28         0.00014421
  29        -0.07989913
  30         0.00000000
Sym=    16a  
Ene=     1.0194
Spin= Alpha
Occup=    0.00000
   1        -0.00000000
   2        -0.00000000
   3         0.00000000
   4        -0.00000000
   5         0.72878327
   6         0.00131540
   7         0.00000000
   8        -1.18337172
   9        -0.00213590
  10        -0.00000000
  11        -0.00000000
  12        -0.00000000
  13        -0.07989913
  14        -0.00014421
  15         0.00000000
  16        -0.00000000
  17         0.00000000
  18        -0.00000000
  19         0.00000000
  20        -0.72878327
  21        -0.00131540
  22         0.00000000
  23         1.18337172
  24         0.00213590
  25        -0.00000000
  26        -0.00000000
  27         0.00000000
  28        -0.07989913
  29        -0.00014421
  30         0.00000000
Sym=    17a  
Ene=     1.0937
Spin= Alpha
Occup=    0.00000
   1        -0.08557224
   2        -0.45110512
   3         2.95032872
   4         0.63063937
   5        -0.00000000
   6         0.00000000
   7         0.80548634
   8         0.00000000
   9        -0.00000000
  10        -0.36327646
  11        -0.05024267
  12        -0.05024267
  13         0.00000000
  14         0.00000000
  15         0.00000000
  16         0.08557224
  17         0.45110512
  18        -2.95032872
  19         0.63063937
  20        -0.00000000
  21         0.00000000
  22         0.80548634
  23        -0.00000000
  24         0.00000000
  25         0.36327646
  26         0.05024267
  27         0.05024267
  28         0.00000000
  29        -0.00000000
  30        -0.00000000
Sym=    18a  
Ene=     1.5167
Spin= Alpha
Occup=    0.00000
   1         0.00863609
   2         1.20393156
   3        -6.90707897
   4         0.35888315
   5         0.00000000
   6        -0.00000000
   7        -3.11715102
   8        -0.00000000
   9         0.00000000
  10        -0.12064702
  11         0.26913016
  12         0.26913016
  13         0.00000000
  14        -0.00000000
  15        -0.00000000
  16        -0.00863609
  17        -1.20393156
  18         6.90707897
  19         0.35888315
  20         0.00000000
  21        -0.00000000
  22        -3.11715102
  23        -0.00000000
  24        -0.00000000
  25         0.12064702
  26        -0.26913016
  27        -0.26913016
  28         0.00000000
  29         0.00000000
  30        -0.00000000
Sym=    19a  
Ene=     1.7118
Spin= Alpha
Occup=    0.00000
   1         0.00000000
   2         0.00000000
   3        -0.00000000
   4         0.00000000
   5        -0.00000000
   6         0.00000000
   7         0.00000000
   8         0.00000000
   9        -0.00000000
  10         0.00000000
  11        -0.00000000
  12         0.00000000
  13        -0.00000000
  14        -0.00000000
  15         0.64822292
  16         0.00000000
  17        -0.00000000
  18         0.00000000
  19         0.00000000
  20        -0.00000000
  21         0.00000000
  22        -0.00000000
  23        -0.00000000
  24        -0.00000000
  25         0.00000000
  26        -0.00000000
  27         0.00000000
  28         0.00000000
  29         0.00000000
  30         0.64822292
Sym=    20a  
Ene=     1.7118
Spin= Alpha
Occup=    0.00000
   1         0.00000000
   2         0.00000000
   3        -0.00000000
   4         0.00000000
   5        -0.00000000
   6         0.00000000
   7        -0.00000000
   8         0.00000000
   9         0.00000000
  10        -0.00000000
  11        -0.56137752
  12         0.56137752
  13         0.00000000
  14        -0.00000000
  15        -0.00000000
  16        -0.00000000
  17        -0.00000000
  18         0.00000000
  19         0.00000000
  20         0.00000000
  21         0.00000000
  22        -0.00000000
  23        -0.00000000
  24        -0.00000000
  25         0.00000000
  26        -0.56137752
  27         0.56137752
  28        -0.00000000
  29         0.00000000
  30        -0.00000000
Sym=    21a  
Ene=     1.8736
Spin= Alpha
Occup=    0.00000
   1         0.00000000
   2        -0.00000000
   3         0.00000000
   4        -0.00000000
   5        -0.00268712
   6         0.30104618
   7         0.00000000
   8         0.00067041
   9        -0.07510816
  10        -0.00000000
  11         0.00000000
  12        -0.00000000
  13         0.00532206
  14        -0.59624551
  15        -0.00000000
  16        -0.00000000
  17        -0.00000000
  18        -0.00000000
  19         0.00000000
  20        -0.00268712
  21         0.30104618
  22        -0.00000000
  23         0.00067041
  24        -0.07510816
  25         0.00000000
  26         0.00000000
  27         0.00000000
  28        -0.00532206
  29         0.59624551
  30        -0.00000000
Sym=    22a  
Ene=     1.8736
Spin= Alpha
Occup=    0.00000
   1        -0.00000000
   2         0.00000000
   3        -0.00000000
   4         0.00000000
   5         0.30104618
   6         0.00268712
   7        -0.00000000
   8        -0.07510816
   9        -0.00067041
  10        -0.00000000
  11        -0.00000000
  12         0.00000000
  13        -0.59624551
  14        -0.00532206
  15        -0.00000000
  16        -0.00000000
  17         0.00000000
  18         0.00000000
  19        -0.00000000
  20         0.30104618
  21         0.00268712
  22         0.00000000
  23        -0.07510816
  24        -0.00067041
  25        -0.00000000
  26         0.00000000
  27         0.00000000
  28         0.59624551
  29         0.00532206
  30         0.00000000
Sym=    23a  
Ene=     2.2725
Spin= Alpha
Occup=    0.00000
   1         0.00000000
   2         0.00000000
   3        -0.00000000
   4         0.00000000
   5         0.00000000
   6         0.00000000
   7        -0.00000000
   8        -0.00000000
   9        -0.00000000
  10         0.00000000
  11        -0.68038422
  12         0.68038422
  13        -0.00000000
  14        -0.00000000
  15        -0.00000000
  16        -0.00000000
  17        -0.00000000
  18         0.00000000
  19         0.00000000
  20        -0.00000000
  21         0.00000000
  22        -0.00000000
  23         0.00000000
  24         0.00000000
  25         0.00000000
  26         0.68038422
  27        -0.68038422
  28        -0.00000000
  29         0.00000000
  30         0.00000000
Sym=    24a  
Ene=     2.2725
Spin= Alpha
Occup=    0.00000
   1        -0.00000000
   2         0.00000000
   3         0.00000000
   4         0.00000000
   5         0.00000000
   6         0.00000000
   7         0.00000000
   8         0.00000000
   9         0.00000000
  10        -0.00000000
  11         0.00000000
  12        -0.00000000
  13         0.00000000
  14        -0.00000000
  15        -0.78564002
  16        -0.00000000
  17         0.00000000
  18        -0.00000000
  19         0.00000000
  20        -0.00000000
  21         0.00000000
  22         0.00000000
  23        -0.00000000
  24         0.00000000
  25        -0.00000000
  26        -0.00000000
  27         0.00000000
  28         0.00000000
  29        -0.00000000
  30         0.78564002
Sym=    25a  
Ene=     2.7482
Spin= Alpha
Occup=    0.00000
   1         0.14005413
   2         0.32385195
   3        -0.54464534
   4         0.32623724
   5        -0.00000000
   6        -0.00000000
   7        -0.58177156
   8         0.00000000
   9         0.00000000
  10        -0.55162171
  11         0.69273635
  12         0.69273635
  13         0.00000000
  14         0.00000000
  15         0.00000000
  16         0.14005413
  17         0.32385195
  18        -0.54464534
  19        -0.32623724
  20        -0.00000000
  21        -0.00000000
  22         0.58177156
  23        -0.00000000
  24         0.00000000
  25        -0.55162171
  26         0.69273635
  27         0.69273635
  28        -0.00000000
  29         0.00000000
  30        -0.00000000
Sym=    26a  
Ene=     2.9649
Spin= Alpha
Occup=    0.00000
   1         0.00000000
   2        -0.00000000
   3         0.00000000
   4        -0.00000000
   5         0.29208956
   6         0.00012172
   7         0.00000000
   8         0.48093794
   9         0.00020041
  10         0.00000000
  11        -0.00000000
  12         0.00000000
  13         1.13671414
  14         0.00047368
  15         0.00000000
  16        -0.00000000
  17        -0.00000000
  18        -0.00000000
  19        -0.00000000
  20        -0.29208956
  21        -0.00012172
  22         0.00000000
  23        -0.48093794
  24        -0.00020041
  25        -0.00000000
  26         0.00000000
  27        -0.00000000
  28         1.13671414
  29         0.00047368
  30        -0.00000000
Sym=    27a  
Ene=     2.9649
Spin= Alpha
Occup=    0.00000
   1        -0.00000000
   2         0.00000000
   3        -0.00000000
   4        -0.00000000
   5        -0.00012172
   6         0.29208956
   7        -0.00000000
   8        -0.00020041
   9         0.48093794
  10        -0.00000000
  11        -0.00000000
  12        -0.00000000
  13        -0.00047368
  14         1.13671414
  15        -0.00000000
  16         0.00000000
  17        -0.00000000
  18         0.00000000
  19         0.00000000
  20         0.00012172
  21        -0.29208956
  22        -0.00000000
  23         0.00020041
  24        -0.48093794
  25         0.00000000
  26         0.00000000
  27         0.00000000
  28        -0.00047368
  29         1.13671414
  30         0.00000000
Sym=    28a  
Ene=     3.2802
Spin= Alpha
Occup=    0.00000
   1         0.00436072
   2         0.61012745
   3         3.17056913
   4         1.19019848
   5         0.00000000
   6         0.00000000
   7         1.63804443
   8         0.00000000
   9        -0.00000000
  10         1.30391985
  11        -0.51735059
  12        -0.51735059
  13        -0.00000000
  14        -0.00000000
  15         0.00000000
  16        -0.00436072
  17        -0.61012745
  18        -3.17056913
  19         1.19019848
  20         0.00000000
  21         0.00000000
  22         1.63804443
  23         0.00000000
  24         0.00000000
  25        -1.30391985
  26         0.51735059
  27         0.51735059
  28        -0.00000000
  29         0.00000000
  30        -0.00000000
Sym=    29a  
Ene=     3.6836
Spin= Alpha
Occup=    0.00000
   1         0.23300238
   2        -1.32733318
   3        -0.77955974
   4        -0.14212357
   5         0.00000000
   6        -0.00000000
   7         0.07452809
   8        -0.00000000
   9         0.00000000
  10         1.13636389
  11         0.76603141
  12         0.76603141
  13        -0.00000000
  14         0.00000000
  15        -0.00000000
  16         0.23300238
  17        -1.32733318
  18        -0.77955974
  19         0.14212357
  20         0.00000000
  21        -0.00000000
  22        -0.07452809
  23         0.00000000
  24         0.00000000
  25         1.13636389
  26         0.76603141
  27         0.76603141
  28         0.00000000
  29        -0.00000000
  30        -0.00000000
Sym=    30a  
Ene=     4.0088
Spin= Alpha
Occup=    0.00000
   1         0.35726010
   2        -0.51901385
   3        -4.03060491
   4         0.46584368
   5        -0.00000000
   6        -0.00000000
   7        -1.25089676
   8         0.00000000
   9         0.00000000
  10         1.21834144
  11         1.07116744
  12         1.07116744
  13        -0.00000000
  14         0.00000000
  15        -0.00000000
  16        -0.35726010
  17         0.51901385
  18         4.03060491
  19         0.46584368
  20        -0.00000000
  21         0.00000000
  22        -1.25089676
  23         0.00000000
  24        -0.00000000
  25        -1.21834144
  26        -1.07116744
  27        -1.07116744
  28         0.00000000
  29         0.00000000
  30         0.00000000
