[Molden Format]
[N_Atoms]
                   10
[Atoms] (AU)
C1          1      6          -4.54716702      1.79706520      0.00478211
C2          2      6          -2.63420579      0.18909313     -0.03201125
H3          3      1          -6.47561540      1.16163766     -0.04494546
H4          4      1          -4.25379886      3.80865835      0.08601808
C5          5      6           0.03386003      0.94356501      0.03196652
H6          6      1          -3.00450028     -1.81261160     -0.11386229
C7          7      6           1.94682106     -0.66440769     -0.00480888
H8          8      1           0.40415413      2.94526850      0.11384958
H9          9      1           1.65344981     -2.67601041     -0.08579617
H10        10      1           3.87527084     -0.02897573      0.04480777
[Charge] (Mulliken)
 -0.40888041879406156     
 -0.13743669316645057     
  0.18190320871268795     
  0.17724111822147393     
 -0.13743669758531496     
  0.18717278743691412     
 -0.40888041651897389     
  0.18717278553666250     
  0.17724112209437459     
  0.18190320406218974     
[GTO] (AU)
   1
   s   6
  3.047524880E+03  1.834737132E-03
  4.573695180E+02  1.403732281E-02
  1.039486850E+02  6.884262227E-02
  2.921015530E+01  2.321844432E-01
  9.286662960E+00  4.679413484E-01
  3.163926960E+00  3.623119853E-01
   s   3
  7.868272350E+00 -1.193324198E-01
  1.881288540E+00 -1.608541517E-01
  5.442492580E-01  1.143456438E+00
   s   1
  1.687144782E-01  1.000000000E+00
   p   3
  7.868272350E+00  6.899906659E-02
  1.881288540E+00  3.164239610E-01
  5.442492580E-01  7.443082909E-01
   p   1
  1.687144782E-01  1.000000000E+00
   d   1
  8.000000000E-01  1.000000000E+00
 
   2
   s   6
  3.047524880E+03  1.834737132E-03
  4.573695180E+02  1.403732281E-02
  1.039486850E+02  6.884262227E-02
  2.921015530E+01  2.321844432E-01
  9.286662960E+00  4.679413484E-01
  3.163926960E+00  3.623119853E-01
   s   3
  7.868272350E+00 -1.193324198E-01
  1.881288540E+00 -1.608541517E-01
  5.442492580E-01  1.143456438E+00
   s   1
  1.687144782E-01  1.000000000E+00
   p   3
  7.868272350E+00  6.899906659E-02
  1.881288540E+00  3.164239610E-01
  5.442492580E-01  7.443082909E-01
   p   1
  1.687144782E-01  1.000000000E+00
   d   1
  8.000000000E-01  1.000000000E+00
 
   3
   s   3
  1.873113696E+01  3.349460434E-02
  2.825394365E+00  2.347269535E-01
  6.401216923E-01  8.137573261E-01
   s   1
  1.612777588E-01  1.000000000E+00
 
   4
   s   3
  1.873113696E+01  3.349460434E-02
  2.825394365E+00  2.347269535E-01
  6.401216923E-01  8.137573261E-01
   s   1
  1.612777588E-01  1.000000000E+00
 
   5
   s   6
  3.047524880E+03  1.834737132E-03
  4.573695180E+02  1.403732281E-02
  1.039486850E+02  6.884262227E-02
  2.921015530E+01  2.321844432E-01
  9.286662960E+00  4.679413484E-01
  3.163926960E+00  3.623119853E-01
   s   3
  7.868272350E+00 -1.193324198E-01
  1.881288540E+00 -1.608541517E-01
  5.442492580E-01  1.143456438E+00
   s   1
  1.687144782E-01  1.000000000E+00
   p   3
  7.868272350E+00  6.899906659E-02
  1.881288540E+00  3.164239610E-01
  5.442492580E-01  7.443082909E-01
   p   1
  1.687144782E-01  1.000000000E+00
   d   1
  8.000000000E-01  1.000000000E+00
 
   6
   s   3
  1.873113696E+01  3.349460434E-02
  2.825394365E+00  2.347269535E-01
  6.401216923E-01  8.137573261E-01
   s   1
  1.612777588E-01  1.000000000E+00
 
   7
   s   6
  3.047524880E+03  1.834737132E-03
  4.573695180E+02  1.403732281E-02
  1.039486850E+02  6.884262227E-02
  2.921015530E+01  2.321844432E-01
  9.286662960E+00  4.679413484E-01
  3.163926960E+00  3.623119853E-01
   s   3
  7.868272350E+00 -1.193324198E-01
  1.881288540E+00 -1.608541517E-01
  5.442492580E-01  1.143456438E+00
   s   1
  1.687144782E-01  1.000000000E+00
   p   3
  7.868272350E+00  6.899906659E-02
  1.881288540E+00  3.164239610E-01
  5.442492580E-01  7.443082909E-01
   p   1
  1.687144782E-01  1.000000000E+00
   d   1
  8.000000000E-01  1.000000000E+00
 
   8
   s   3
  1.873113696E+01  3.349460434E-02
  2.825394365E+00  2.347269535E-01
  6.401216923E-01  8.137573261E-01
   s   1
  1.612777588E-01  1.000000000E+00
 
   9
   s   3
  1.873113696E+01  3.349460434E-02
  2.825394365E+00  2.347269535E-01
  6.401216923E-01  8.137573261E-01
   s   1
  1.612777588E-01  1.000000000E+00
 
  10
   s   3
  1.873113696E+01  3.349460434E-02
  2.825394365E+00  2.347269535E-01
  6.401216923E-01  8.137573261E-01
   s   1
  1.612777588E-01  1.000000000E+00
 
[MO]
Sym=     1a  
Ene=   -11.2340
Spin= Alpha
Occup=    2.00000
   1         0.05671623
   2         0.00122895
   3         0.00274485
   4        -0.00013307
   5         0.00006745
   6         0.00000085
   7         0.00135169
   8        -0.00049792
   9        -0.00000144
  10        -0.00021243
  11        -0.00028475
  12        -0.00023000
  13        -0.00002835
  14        -0.00000083
  15        -0.00000281
  16         0.70156235
  17         0.01953457
  18        -0.00648112
  19         0.00004847
  20         0.00003882
  21         0.00000213
  22         0.00083473
  23        -0.00097136
  24        -0.00002643
  25        -0.00152611
  26        -0.00147559
  27        -0.00180759
  28        -0.00028600
  29        -0.00000673
  30         0.00001101
  31        -0.00002115
  32         0.00031650
  33        -0.00010629
  34        -0.00016133
  35         0.70155965
  36         0.01953450
  37        -0.00648108
  38        -0.00004847
  39        -0.00003882
  40        -0.00000213
  41        -0.00083474
  42         0.00097135
  43         0.00002640
  44        -0.00152611
  45        -0.00147559
  46        -0.00180758
  47        -0.00028600
  48        -0.00000674
  49         0.00001101
  50        -0.00018472
  51         0.00101064
  52         0.05671600
  53         0.00122895
  54         0.00274484
  55         0.00013307
  56        -0.00006745
  57        -0.00000085
  58        -0.00135169
  59         0.00049792
  60         0.00000147
  61        -0.00021243
  62        -0.00028474
  63        -0.00023000
  64        -0.00002835
  65        -0.00000083
  66        -0.00000281
  67        -0.00018472
  68         0.00101063
  69        -0.00010629
  70        -0.00016133
  71        -0.00002115
  72         0.00031650
Sym=     2a  
Ene=   -11.2330
Spin= Alpha
Occup=    2.00000
   1        -0.06196003
   2        -0.00157447
   3        -0.00237829
   4         0.00008882
   5        -0.00011508
   6        -0.00000326
   7        -0.00105746
   8         0.00045637
   9         0.00000370
  10         0.00033273
  11         0.00038823
  12         0.00016636
  13        -0.00001712
  14         0.00000186
  15         0.00000965
  16        -0.70138105
  17        -0.01943129
  18         0.01159447
  19        -0.00019413
  20        -0.00015013
  21        -0.00000832
  22         0.00148209
  23         0.00088230
  24         0.00005337
  25         0.00066932
  26         0.00107020
  27         0.00162438
  28         0.00005740
  29        -0.00001225
  30        -0.00002390
  31         0.00002258
  32        -0.00007778
  33         0.00004967
  34         0.00006425
  35         0.70138375
  36         0.01943136
  37        -0.01159449
  38        -0.00019413
  39        -0.00015013
  40        -0.00000833
  41         0.00148209
  42         0.00088230
  43         0.00005333
  44        -0.00066933
  45        -0.00107021
  46        -0.00162439
  47        -0.00005740
  48         0.00001226
  49         0.00002390
  50         0.00002985
  51        -0.00145998
  52         0.06196025
  53         0.00157447
  54         0.00237830
  55         0.00008882
  56        -0.00011508
  57        -0.00000326
  58        -0.00105747
  59         0.00045637
  60         0.00000371
  61        -0.00033273
  62        -0.00038823
  63        -0.00016636
  64         0.00001712
  65        -0.00000187
  66        -0.00000965
  67        -0.00002985
  68         0.00145998
  69        -0.00004967
  70        -0.00006425
  71        -0.00002258
  72         0.00007778
Sym=     3a  
Ene=   -11.2230
Spin= Alpha
Occup=    2.00000
   1         0.70185053
   2         0.01950733
   3        -0.00806426
   4         0.00005271
   5        -0.00002089
   6        -0.00000012
   7        -0.00024534
   8         0.00026962
   9         0.00000717
  10        -0.00124848
  11        -0.00134047
  12        -0.00183022
  13        -0.00016443
  14         0.00000249
  15         0.00001963
  16        -0.05721961
  17        -0.00189649
  18         0.00318535
  19         0.00009540
  20        -0.00007645
  21        -0.00000168
  22        -0.00081688
  23         0.00038973
  24         0.00000426
  25         0.00000398
  26        -0.00007065
  27         0.00008408
  28        -0.00000497
  29        -0.00000141
  30        -0.00000695
  31        -0.00011184
  32         0.00154219
  33        -0.00011157
  34         0.00154461
  35        -0.05719044
  36        -0.00189560
  37         0.00318330
  38        -0.00009535
  39         0.00007637
  40         0.00000169
  41         0.00081642
  42        -0.00038920
  43        -0.00000423
  44         0.00000409
  45        -0.00007060
  46         0.00008403
  47        -0.00000495
  48        -0.00000139
  49        -0.00000694
  50        -0.00005091
  51        -0.00034502
  52         0.70152294
  53         0.01949820
  54        -0.00806006
  55        -0.00005270
  56         0.00002088
  57         0.00000013
  58         0.00024496
  59        -0.00026942
  60        -0.00000722
  61        -0.00124788
  62        -0.00133986
  63        -0.00182938
  64        -0.00016435
  65         0.00000247
  66         0.00001958
  67        -0.00005091
  68        -0.00034498
  69        -0.00011154
  70         0.00154390
  71        -0.00011179
  72         0.00154154
Sym=     4a  
Ene=   -11.2230
Spin= Alpha
Occup=    2.00000
   1        -0.70109166
   2        -0.01954044
   3         0.00899365
   4        -0.00003858
   5         0.00002297
   6         0.00000038
   7         0.00082019
   8        -0.00041246
   9        -0.00000512
  10         0.00127488
  11         0.00129700
  12         0.00181471
  13         0.00017494
  14        -0.00000145
  15        -0.00002074
  16         0.06245071
  17         0.00189788
  18        -0.00438736
  19        -0.00011956
  20         0.00016152
  21         0.00000465
  22         0.00100154
  23        -0.00114813
  24        -0.00003107
  25         0.00023317
  26         0.00010620
  27        -0.00009949
  28         0.00003087
  29         0.00000623
  30         0.00000956
  31         0.00010362
  32        -0.00139169
  33         0.00006544
  34        -0.00152119
  35        -0.06247744
  36        -0.00189876
  37         0.00438884
  38        -0.00011960
  39         0.00016156
  40         0.00000465
  41         0.00100192
  42        -0.00114831
  43        -0.00003100
  44        -0.00023317
  45        -0.00010623
  46         0.00009953
  47        -0.00003087
  48        -0.00000622
  49        -0.00000956
  50        -0.00000003
  51         0.00008757
  52         0.70141944
  53         0.01954955
  54        -0.00899742
  55        -0.00003860
  56         0.00002298
  57         0.00000039
  58         0.00082031
  59        -0.00041259
  60        -0.00000519
  61        -0.00127546
  62        -0.00129762
  63        -0.00181556
  64        -0.00017501
  65         0.00000144
  66         0.00002071
  67         0.00000001
  68        -0.00008773
  69        -0.00006549
  70         0.00152191
  71        -0.00010367
  72         0.00139241
Sym=     5a  
Ene=    -1.0887
Spin= Alpha
Occup=    2.00000
   1        -0.09113268
   2         0.17109311
   3         0.13773968
   4         0.06443242
   5        -0.04433500
   6        -0.00086130
   7         0.00905369
   8        -0.00697600
   9        -0.00014980
  10         0.00772671
  11         0.00477673
  12        -0.00739412
  13        -0.00550302
  14         0.00001736
  15         0.00046928
  16        -0.13261103
  17         0.25399700
  18         0.16359266
  19         0.01361097
  20         0.04697614
  21         0.00198551
  22         0.01305870
  23        -0.01251368
  24        -0.00031011
  25         0.01378377
  26         0.00622820
  27        -0.01116772
  28        -0.00153341
  29         0.00031900
  30         0.00075386
  31         0.04028207
  32         0.00441346
  33         0.04482379
  34         0.00692943
  35        -0.13261104
  36         0.25399701
  37         0.16359266
  38        -0.01361099
  39        -0.04697619
  40        -0.00198399
  41        -0.01305871
  42         0.01251366
  43         0.00031065
  44         0.01378377
  45         0.00622819
  46        -0.01116771
  47        -0.00153341
  48         0.00031902
  49         0.00075399
  50         0.06556875
  51         0.00564378
  52        -0.09113269
  53         0.17109311
  54         0.13773968
  55        -0.06443243
  56         0.04433497
  57         0.00086212
  58        -0.00905370
  59         0.00697600
  60         0.00015000
  61         0.00772672
  62         0.00477680
  63        -0.00739420
  64        -0.00550299
  65         0.00001692
  66         0.00046818
  67         0.06556875
  68         0.00564378
  69         0.04482379
  70         0.00692943
  71         0.04028207
  72         0.00441346
Sym=     6a  
Ene=    -1.0009
Spin= Alpha
Occup=    2.00000
   1         0.12801837
   2        -0.24124833
   3        -0.19390421
   4        -0.05100836
   5         0.04999527
   6         0.00125501
   7        -0.00699914
   8        -0.00368603
   9        -0.00023356
  10        -0.00988289
  11        -0.00903662
  12         0.01069256
  13         0.00442543
  14        -0.00014159
  15        -0.00081976
  16         0.08691424
  17        -0.16760801
  18        -0.11796403
  19         0.12578345
  20        -0.05877007
  21        -0.00061245
  22         0.03132342
  23         0.00024908
  24         0.00042016
  25         0.00214436
  26        -0.00729586
  27         0.00575804
  28         0.00915340
  29         0.00029733
  30        -0.00046039
  31        -0.07489481
  32        -0.01966199
  33        -0.07038970
  34        -0.01110886
  35        -0.08691424
  36         0.16760800
  37         0.11796402
  38         0.12578345
  39        -0.05877011
  40        -0.00061139
  41         0.03132342
  42         0.00024909
  43         0.00042001
  44        -0.00214437
  45         0.00729585
  46        -0.00575802
  47        -0.00915341
  48        -0.00029700
  49         0.00046053
  50        -0.04451389
  51        -0.00498792
  52        -0.12801837
  53         0.24124834
  54         0.19390421
  55        -0.05100838
  56         0.04999522
  57         0.00125639
  58        -0.00699916
  59        -0.00368608
  60        -0.00023219
  61         0.00988291
  62         0.00903674
  63        -0.01069270
  64        -0.00442537
  65         0.00014076
  66         0.00081790
  67         0.04451389
  68         0.00498792
  69         0.07038970
  70         0.01110886
  71         0.07489481
  72         0.01966199
Sym=     7a  
Ene=    -0.8216
Spin= Alpha
Occup=    2.00000
   1        -0.10731239
   2         0.20674855
   3         0.19932848
   4        -0.08536420
   5         0.03927288
   6         0.00039210
   7        -0.03703811
   8         0.01723275
   9         0.00017769
  10         0.00852574
  11         0.01144888
  12        -0.00930256
  13         0.00770858
  14         0.00056712
  15         0.00102470
  16         0.07224850
  17        -0.14420061
  18        -0.13067374
  19        -0.16875472
  20         0.04486823
  21        -0.00048511
  22        -0.04587378
  23         0.02692703
  24         0.00043468
  25        -0.00818074
  26        -0.00560302
  27         0.00630318
  28        -0.01252250
  29        -0.00070141
  30        -0.00069430
  31         0.12126066
  32         0.04998954
  33         0.10188286
  34         0.04295716
  35         0.07224850
  36        -0.14420060
  37        -0.13067374
  38         0.16875472
  39        -0.04486823
  40         0.00048528
  41         0.04587379
  42        -0.02692701
  43        -0.00043497
  44        -0.00818074
  45        -0.00560301
  46         0.00630318
  47        -0.01252252
  48        -0.00070101
  49        -0.00069445
  50        -0.06591624
  51        -0.02052435
  52        -0.10731239
  53         0.20674854
  54         0.19932848
  55         0.08536416
  56        -0.03927301
  57        -0.00038857
  58         0.03703809
  59        -0.01723280
  60        -0.00017621
  61         0.00852577
  62         0.01144905
  63        -0.00930277
  64         0.00770867
  65         0.00056567
  66         0.00102209
  67        -0.06591623
  68        -0.02052435
  69         0.10188285
  70         0.04295716
  71         0.12126066
  72         0.04998953
Sym=     8a  
Ene=    -0.7528
Spin= Alpha
Occup=    2.00000
   1        -0.04892583
   2         0.09515977
   3         0.09819161
   4        -0.04582197
   5         0.14453168
   6         0.00495958
   7        -0.02068507
   8         0.04783444
   9         0.00156919
  10         0.00456969
  11         0.00774434
  12        -0.00469561
  13         0.00950367
  14         0.00050630
  15         0.00067849
  16         0.08367057
  17        -0.16414185
  18        -0.16880114
  19         0.05955963
  20         0.16845754
  21         0.00726040
  22         0.01241092
  23         0.06977298
  24         0.00284636
  25         0.00387525
  26        -0.01573037
  27         0.00659564
  28        -0.00016084
  29        -0.00004786
  30        -0.00099528
  31         0.04499077
  32         0.02117633
  33         0.11596002
  34         0.06513235
  35        -0.08367057
  36         0.16414185
  37         0.16880114
  38         0.05955963
  39         0.16845755
  40         0.00726013
  41         0.01241092
  42         0.06977299
  43         0.00284630
  44        -0.00387525
  45         0.01573034
  46        -0.00659561
  47         0.00016084
  48         0.00004785
  49         0.00099571
  50        -0.16638048
  51        -0.08403813
  52         0.04892584
  53        -0.09515978
  54        -0.09819162
  55        -0.04582187
  56         0.14453200
  57         0.00495121
  58        -0.02068504
  59         0.04783454
  60         0.00156671
  61        -0.00456970
  62        -0.00774451
  63         0.00469580
  64        -0.00950373
  65        -0.00050549
  66        -0.00067595
  67         0.16638048
  68         0.08403813
  69        -0.11596003
  70        -0.06513236
  71        -0.04499077
  72        -0.02117633
Sym=     9a  
Ene=    -0.6426
Spin= Alpha
Occup=    2.00000
   1         0.01687137
   2        -0.03240574
   3        -0.05805179
   4         0.28559222
   5        -0.06099777
   6         0.00139691
   7         0.11746636
   8        -0.01298100
   9         0.00104056
  10        -0.00898354
  11        -0.00284099
  12         0.00219922
  13        -0.01649256
  14        -0.00080428
  15        -0.00044111
  16        -0.03280149
  17         0.06874039
  18         0.03779902
  19        -0.09057320
  20         0.20722272
  21         0.00678454
  22        -0.03122645
  23         0.06511386
  24         0.00209531
  25        -0.00518205
  26        -0.00160797
  27        -0.00094665
  28        -0.00545525
  29        -0.00027411
  30        -0.00010114
  31        -0.16562248
  32        -0.10864109
  33        -0.03008745
  34        -0.02346990
  35         0.03280149
  36        -0.06874040
  37        -0.03779903
  38        -0.09057321
  39         0.20722273
  40         0.00678368
  41        -0.03122645
  42         0.06511385
  43         0.00209534
  44         0.00518205
  45         0.00160796
  46         0.00094666
  47         0.00545526
  48         0.00027394
  49         0.00010129
  50        -0.07613703
  51        -0.05724449
  52        -0.01687137
  53         0.03240574
  54         0.05805179
  55         0.28559226
  56        -0.06099763
  57         0.00139272
  58         0.11746638
  59        -0.01298092
  60         0.00103824
  61         0.00898357
  62         0.00284106
  63        -0.00219933
  64         0.01649264
  65         0.00080277
  66         0.00044005
  67         0.07613701
  68         0.05724448
  69         0.03008748
  70         0.02346992
  71         0.16562246
  72         0.10864108
Sym=    10a  
Ene=    -0.6333
Spin= Alpha
Occup=    2.00000
   1         0.00609761
   2        -0.01091426
   3        -0.01469348
   4        -0.07606273
   5        -0.24694135
   6        -0.01049808
   7        -0.03609332
   8        -0.10677926
   9        -0.00458133
  10         0.00725329
  11        -0.01202232
  12         0.00105812
  13        -0.00401587
  14        -0.00006104
  15        -0.00063466
  16        -0.00782670
  17         0.01288642
  18         0.01160874
  19        -0.21684962
  20        -0.11836963
  21        -0.00739664
  22        -0.06686884
  23        -0.05940742
  24        -0.00316282
  25        -0.00507062
  26         0.00714921
  27        -0.00083291
  28        -0.00098296
  29        -0.00010196
  30         0.00034207
  31         0.07951909
  32         0.05126188
  33        -0.15489775
  34        -0.10267235
  35        -0.00782670
  36         0.01288640
  37         0.01160872
  38         0.21684970
  39         0.11836992
  40         0.00738962
  41         0.06686888
  42         0.05940756
  43         0.00315943
  44        -0.00507062
  45         0.00714916
  46        -0.00083286
  47        -0.00098297
  48        -0.00010190
  49         0.00034282
  50         0.09535392
  51         0.05886665
  52         0.00609761
  53        -0.01091426
  54        -0.01469347
  55         0.07606307
  56         0.24694226
  57         0.01047463
  58         0.03609346
  59         0.10677965
  60         0.00457144
  61         0.00725329
  62        -0.01202250
  63         0.00105830
  64        -0.00401590
  65        -0.00006091
  66        -0.00063200
  67         0.09535393
  68         0.05886665
  69        -0.15489775
  70        -0.10267235
  71         0.07951912
  72         0.05126190
Sym=    11a  
Ene=    -0.5571
Spin= Alpha
Occup=    2.00000
   1         0.02114856
   2        -0.04561271
   3        -0.02295046
   4        -0.26919074
   5         0.12952039
   6         0.00145383
   7        -0.10167586
   8         0.04696532
   9         0.00047341
  10         0.00651909
  11         0.00334445
  12        -0.00034946
  13         0.01555977
  14         0.00070296
  15         0.00036895
  16         0.00239626
  17        -0.00583481
  18         0.02150786
  19         0.21184728
  20        -0.21889523
  21        -0.00564515
  22         0.07697085
  23        -0.09383037
  24        -0.00260073
  25        -0.00238735
  26         0.01061789
  27        -0.00107784
  28         0.02181575
  29         0.00082007
  30         0.00080691
  31         0.11927708
  32         0.10351616
  33         0.04092408
  34         0.04221118
  35         0.00239626
  36        -0.00583482
  37         0.02150786
  38        -0.21184728
  39         0.21889527
  40         0.00564436
  41        -0.07697084
  42         0.09383038
  43         0.00260053
  44        -0.00238734
  45         0.01061788
  46        -0.00107784
  47         0.02181576
  48         0.00081976
  49         0.00080708
  50         0.11728045
  51         0.09804405
  52         0.02114856
  53        -0.04561271
  54        -0.02295046
  55         0.26919077
  56        -0.12952037
  57        -0.00145450
  58         0.10167588
  59        -0.04696528
  60        -0.00047438
  61         0.00651911
  62         0.00334452
  63        -0.00034955
  64         0.01555983
  65         0.00070189
  66         0.00036790
  67         0.11728045
  68         0.09804406
  69         0.04092409
  70         0.04221118
  71         0.11927708
  72         0.10351616
Sym=    12a  
Ene=    -0.5416
Spin= Alpha
Occup=    2.00000
   1         0.00547002
   2        -0.01258729
   3         0.00126788
   4         0.10038411
   5         0.26907099
   6         0.01166478
   7         0.07212687
   8         0.14604579
   9         0.00656239
  10        -0.02019636
  11         0.02322322
  12         0.00000216
  13         0.00034720
  14        -0.00029220
  15         0.00103769
  16        -0.01798610
  17         0.03577106
  18         0.04313120
  19         0.05425345
  20        -0.14732303
  21        -0.00496292
  22        -0.01146609
  23        -0.09286453
  24        -0.00372711
  25        -0.01226707
  26         0.01787305
  27        -0.00137843
  28         0.00128552
  29        -0.00011526
  30         0.00087302
  31        -0.12760910
  32        -0.09371532
  33         0.18229438
  34         0.13846362
  35         0.01798611
  36        -0.03577106
  37        -0.04313122
  38         0.05425357
  39        -0.14732263
  40        -0.00497344
  41        -0.01146605
  42        -0.09286439
  43        -0.00373067
  44         0.01226710
  45        -0.01787310
  46         0.00137845
  47        -0.00128548
  48         0.00011391
  49        -0.00087217
  50         0.11064666
  51         0.07375518
  52        -0.00547002
  53         0.01258729
  54        -0.00126787
  55         0.10038460
  56         0.26907243
  57         0.01162689
  58         0.07212713
  59         0.14604659
  60         0.00654151
  61         0.02019636
  62        -0.02322340
  63        -0.00000197
  64        -0.00034723
  65         0.00029233
  66        -0.00103492
  67        -0.11064667
  68        -0.07375518
  69        -0.18229437
  70        -0.13846361
  71         0.12760910
  72         0.09371533
Sym=    13a  
Ene=    -0.4874
Spin= Alpha
Occup=    2.00000
   1         0.00238247
   2        -0.00524881
   3         0.00842514
   4         0.12922769
   5         0.13368341
   6         0.00685352
   7         0.09548209
   8         0.08059988
   9         0.00436383
  10        -0.02228216
  11         0.02218897
  12         0.00008678
  13        -0.00456005
  14        -0.00051255
  15         0.00092236
  16         0.01583577
  17        -0.03599848
  18        -0.04626892
  19        -0.22081892
  20        -0.19764065
  21        -0.01047399
  22        -0.09836738
  23        -0.13989679
  24        -0.00665633
  25        -0.02311821
  26         0.02747800
  27         0.00002580
  28        -0.00038763
  29        -0.00036436
  30         0.00121686
  31        -0.12758864
  32        -0.10563205
  33         0.11799299
  34         0.11174535
  35         0.01583577
  36        -0.03599848
  37        -0.04626892
  38         0.22081820
  39         0.19763854
  40         0.01052867
  41         0.09836694
  42         0.13989551
  43         0.00668961
  44        -0.02311823
  45         0.02747817
  46         0.00002566
  47        -0.00038764
  48        -0.00036321
  49         0.00121439
  50         0.16165489
  51         0.14419130
  52         0.00238247
  53        -0.00524881
  54         0.00842513
  55        -0.12922852
  56        -0.13368585
  57        -0.00678991
  58        -0.09548262
  59        -0.08060144
  60        -0.00432308
  61        -0.02228211
  62         0.02218896
  63         0.00008675
  64        -0.00455997
  65        -0.00051463
  66         0.00092253
  67         0.16165489
  68         0.14419130
  69         0.11799298
  70         0.11174534
  71        -0.12758864
  72        -0.10563205
Sym=    14a  
Ene=    -0.4399
Spin= Alpha
Occup=    2.00000
   1         0.00000011
   2        -0.00000006
   3        -0.00000336
   4        -0.00294908
   5        -0.00863200
   6         0.22426722
   7        -0.00218742
   8        -0.00639831
   9         0.16626463
  10        -0.00032556
  11         0.00073221
  12        -0.00040659
  13        -0.00040949
  14         0.01440986
  15        -0.01100006
  16        -0.00000316
  17         0.00000666
  18         0.00001213
  19        -0.00382910
  20        -0.01130341
  21         0.29413700
  22        -0.00267971
  23        -0.00788087
  24         0.20512271
  25         0.00003062
  26        -0.00081596
  27         0.00078510
  28        -0.00011121
  29        -0.00127067
  30         0.01219815
  31         0.00000815
  32         0.00000760
  33        -0.00000551
  34        -0.00000693
  35        -0.00000079
  36         0.00000225
  37         0.00000278
  38        -0.00387065
  39        -0.01133969
  40         0.29413506
  41        -0.00269781
  42        -0.00791023
  43         0.20512134
  44        -0.00002486
  45         0.00080927
  46        -0.00078499
  47         0.00011182
  48         0.00127078
  49        -0.01219844
  50        -0.00001006
  51        -0.00001260
  52         0.00000127
  53        -0.00000226
  54        -0.00000830
  55        -0.00291405
  56        -0.00858378
  57         0.22426953
  58        -0.00215902
  59        -0.00636590
  60         0.16626625
  61         0.00033003
  62        -0.00073665
  63         0.00040656
  64         0.00041015
  65        -0.01440977
  66         0.01099987
  67        -0.00002072
  68        -0.00002044
  69        -0.00002106
  70        -0.00002144
  71         0.00002031
  72         0.00001879
Sym=    15a  
Ene=    -0.3215
Spin= Alpha
Occup=    2.00000
   1         0.00000057
   2        -0.00000099
   3        -0.00000569
   4         0.00399418
   5         0.01173172
   6        -0.30486135
   7         0.00359290
   8         0.01056019
   9        -0.27438919
  10         0.00029359
  11        -0.00077637
  12         0.00048286
  13         0.00034483
  14        -0.01293243
  15         0.01163793
  16        -0.00000237
  17         0.00000482
  18         0.00001644
  19         0.00309379