   This run of MOLCAS is using the pymolcas driver

                             OPE
                             OPE          NMOL  CASOP  ENMOLC A   SO
                 OPE        NMOLC        AS  OP EN  MO LC     AS  OP
                OPENM       OL CA        SO  PE NM  OL CA     SOP EN
                OP EN      MO   LC       AS  OP ENMOL  CASO   PENMOL
                OP  EN     MO   LC       AS  OP EN     MO     LC ASO
               OP   E  NMOL  C  AS       OP  EN MO     LC     AS  OP
               OP  E   NMO   LC AS        OPEN  MO     LCASOP EN   M
               O  PEN   MO  LCA  SO
            OPE   NMO   L   CAS    OP
        OPENMOL  CASOP     ENMOL   CASOPE
     OPENMOLCA   SOPENMOLCASOPEN   MOLCASOPE
    OPENMOLCAS   OP           EN   MOL    CAS
    OPENMOLCAS       OP  ENM        O     LCA
    OPENMOLCAS    OPEN  MOLCASO     P  E  NMO
    OPENMOLCAS     OP               E  N  MOL
    OPENMOLCA   SO           PENM   O  L  CAS    OPEN    MO    LCAS
    OPENMOLCA   SOP           ENM   O  L  CAS   OP  EN  MOLC  AS   O
    OPENMOLCA   SOPE           NM      O  LCA   S      OP  EN MO
    OPENMOLC                AS         O  PEN   M      OL  CA  SOPE
    OPENMO        LCASOPE  NMOL        C  ASO   P      ENMOLC     AS
    OPE     NMO      LCA  SO     P     E   NM   OL  CA SO  PE N   MO
          OPENMOLCA            SOPE   NMO        LCAS  O    P  ENMO
     OPENMOLCASOPENMOLCASOPENMOLCASOPENMOLCA
        OPENMOLCASOPENMOLCASOPENMOLCASOPE
            OPENMOLCASOPENMOLCASOPENM
               OPENMOLCASOPENMOLCA        version: 24.02
                   OPENMOLCASO
                       OPE                tag: 428-g03afa2e9a

 OpenMolcas is free software; you can redistribute it and/or modify it
 under the terms of the GNU Lesser General Public License version 2.1.
 OpenMolcas is distributed in the hope that it will be useful, but it
 is provided "as is" and without any express or implied warranties.
 For more details see the full text of the license in the file
 LICENSE or in <http://www.gnu.org/licenses/>.

                 Copyright (C) The OpenMolcas Authors
           For the author list and the recommended citation,
                   consult the file CONTRIBUTORS.md

           *************************************************
           * pymolcas version py2.28                       *
           *   build c4a6d18ded8cb6cad61d2372a9abd97c      *
           *   (after the EMIL interpreter by V. Veryazov) *
           *************************************************

configuration info
------------------
Host name: DESKTOP-ET1S6F4 (Linux)
C Compiler ID: GNU
C flags: -std=gnu99 -fopenmp
Fortran Compiler ID: GNU
Fortran flags: -fno-aggressive-loop-optimizations -cpp -fdefault-integer-8 -fopenmp
Definitions: _WARNING_WORKAROUND_;_MOLCAS_;_I8_;_LINUX_
Parallel: OFF (GA=OFF)


   ----------------------------------------------------------------------
  |
  |           Project: trans-1,3-butadiene
  |    Submitted from: /home/kenya/molcas_test/0514
  |      Scratch area: /tmp/trans-1,3-butadiene
  |   Save outputs to: /home/kenya/molcas_test/0514
  |            Molcas: /home/kenya/OpenMolcas/builds/gnu_dev_omp
  |
  | Scratch area is NOT empty
  |
  |    MOLCAS_DRIVER = /home/kenya/OpenMolcas/builds/gnu_dev_omp/pymolcas
  |    MOLCAS_NPROCS = 1
  |    MOLCAS_SOURCE = /home/kenya/OpenMolcas
  | MOLCAS_STRUCTURE = 0
  |
   ----------------------------------------------------------------------

++ ---------   Input file   ---------

&GATEWAY
  Coord = 10
  Angstrom
  C -2.39849 0.94826 0.00254
  C -1.39058 0.07319 -0.01793
  H -3.42413 0.59466 -0.02450
  H -2.21395 2.01764 0.04610
  C 0.01453 0.52619 0.01789
  H -1.61634 -0.98896 -0.06175
  C 1.02244 -0.34888 -0.00252
  H 0.24030 1.58834 0.06167
  H 0.83791 -1.41827 -0.04602
  H 2.04809 0.00471 0.02452

  Basis = 6-31G*
  Group = full
  NoCD

>>> DO WHILE

  &SEWARD

  &SCF

  &SLAPAF

>>> END DO

-- ----------------------------------

--- Start Module: gateway at Tue May 14 15:12:02 2024 ---

()()()()()()()()()()()()()()()()()()()()()()()()()()()()()()()()()()()()()()()()()()()()()()()()()()

                                              &GATEWAY

                                   only a single process is used
                       available to each process: 2.0 GB of memory, 1 thread
                                             pid: 42227
()()()()()()()()()()()()()()()()()()()()()()()()()()()()()()()()()()()()()()()()()()()()()()()()()()


++    Symmetry information:
      ---------------------

                    Character Table for C1 

                             E  
                    a        1  x, y, xy, Rz, z, xz, Ry, yz, Rx, I
--


++    Basis set information:
      ----------------------


      Basis set label: C.6-31G**....

      Electronic valence basis set:
      ------------------
      Associated Effective Charge   6.000000 au
      Associated Actual Charge      6.000000 au
      Nuclear Model: Point charge

      Shell  nPrim  nBasis  Cartesian Spherical Contaminant
         s      10       3        X                  
         p       4       2        X                  
         d       1       1        X                  


      Basis set label: H.6-31G....

      Electronic valence basis set:
      ------------------
      Associated Effective Charge   1.000000 au
      Associated Actual Charge      1.000000 au
      Nuclear Model: Point charge

      Shell  nPrim  nBasis  Cartesian Spherical Contaminant
         s       4       2        X                  


      Basis set label: C.6-31G**....

      Electronic valence basis set:
      ------------------
      Associated Effective Charge   6.000000 au
      Associated Actual Charge      6.000000 au
      Nuclear Model: Point charge

      Shell  nPrim  nBasis  Cartesian Spherical Contaminant
         s      10       3        X                  
         p       4       2        X                  
         d       1       1        X                  


      Basis set label: H.6-31G....

      Electronic valence basis set:
      ------------------
      Associated Effective Charge   1.000000 au
      Associated Actual Charge      1.000000 au
      Nuclear Model: Point charge

      Shell  nPrim  nBasis  Cartesian Spherical Contaminant
         s       4       2        X                  


      Basis set label: C.6-31G**....

      Electronic valence basis set:
      ------------------
      Associated Effective Charge   6.000000 au
      Associated Actual Charge      6.000000 au
      Nuclear Model: Point charge

      Shell  nPrim  nBasis  Cartesian Spherical Contaminant
         s      10       3        X                  
         p       4       2        X                  
         d       1       1        X                  


      Basis set label: H.6-31G....

      Electronic valence basis set:
      ------------------
      Associated Effective Charge   1.000000 au
      Associated Actual Charge      1.000000 au
      Nuclear Model: Point charge

      Shell  nPrim  nBasis  Cartesian Spherical Contaminant
         s       4       2        X                  
--


++    Molecular structure info:
      -------------------------

                    ************************************************ 
                    **** Cartesian Coordinates / Bohr, Angstrom **** 
                    ************************************************ 

     Center  Label                x              y              z                     x              y              z
        1      C1              -4.532489       1.791952       0.004800             -2.398490       0.948260       0.002540
        2      C2              -2.627815       0.138309      -0.033883             -1.390580       0.073190      -0.017930
        3      H3              -6.470668       1.123745      -0.046298             -3.424130       0.594660      -0.024500
        4      H4              -4.183759       3.812787       0.087116             -2.213950       2.017640       0.046100
        5      C5               0.027458       0.994355       0.033807              0.014530       0.526190       0.017890
        6      H6              -3.054440      -1.868864      -0.116691             -1.616340      -0.988960      -0.061750
        7      C7               1.932132      -0.659288      -0.004762              1.022440      -0.348880      -0.002520
        8      H8               0.454101       3.001528       0.116539              0.240300       1.588340       0.061670
        9      H9               1.583420      -2.680142      -0.086965              0.837910      -1.418270      -0.046020
       10      H10              3.870329       0.008901       0.046336              2.048090       0.004710       0.024520

                    *************************************** 
                    *    InterNuclear Distances / Bohr    * 
                    *************************************** 

               1 C1            2 C2            3 H3            4 H4            5 C5            6 H6    
    1 C1       0.000000
    2 C2       2.522660        0.000000
    3 H3       2.050768        3.967210        0.000000
    4 H4       2.052356        3.992166        3.532520        0.000000
    5 C5       4.629268        2.790676        6.499907        5.067618        0.000000
    6 H6       3.949805        2.053681        4.542166        5.796383        4.209366        0.000000
    7 C7       6.913754        4.629268        8.589992        7.577072        2.522658        5.132397
    8 H8       5.132411        4.209377        7.176699        4.708371        2.053682        6.007076
    9 H9       7.577097        5.067641        8.907275        8.686126        3.992184        4.708376
   10 H10      8.590015        6.499928       10.401331        8.907275        3.967233        7.176699

               7 C7            8 H8            9 H9           10 H10   
    7 C7       0.000000
    8 H8       3.949792        0.000000
    9 H9       2.052367        5.796391        0.000000
   10 H10      2.050779        4.542176        3.532516        0.000000

                    ******************************************* 
                    *    InterNuclear Distances / Angstrom    * 
                    ******************************************* 

               1 C1            2 C2            3 H3            4 H4            5 C5            6 H6    
    1 C1       0.000000
    2 C2       1.334934        0.000000
    3 H3       1.085220        2.099357        0.000000
    4 H4       1.086060        2.112563        1.869329        0.000000
    5 C5       2.449703        1.476762        3.439603        2.681668        0.000000
    6 H6       2.090147        1.086761        2.403611        3.067314        2.227501        0.000000
    7 C7       3.658601        2.449703        4.545628        4.009614        1.334933        2.715947
    8 H8       2.715955        2.227507        3.797746        2.491563        1.086762        3.178808
    9 H9       4.009627        2.681680        4.713527        4.596500        2.112573        2.491565
   10 H10      4.545640        3.439614        5.504147        4.713527        2.099369        3.797745

               7 C7            8 H8            9 H9           10 H10   
    7 C7       0.000000
    8 H8       2.090140        0.000000
    9 H9       1.086066        3.067318        0.000000
   10 H10      1.085226        2.403616        1.869327        0.000000

                    ************************************** 
                    *    Valence Bond Angles / Degree    * 
                    ************************************** 
                          Atom centers                 Phi
                      2 C2       1 C1       3 H3       119.97
                      2 C2       1 C1       4 H4       121.18
                      3 H3       1 C1       4 H4       118.84
                      1 C1       2 C2       5 C5       121.13
                      1 C1       2 C2       6 H6       118.98
                      5 C5       2 C2       6 H6       119.90
                      2 C2       5 C5       7 C7       121.13
                      2 C2       5 C5       8 H8       119.90
                      7 C7       5 C5       8 H8       118.98
                      5 C5       7 C7       9 H9       121.18
                      5 C5       7 C7      10 H10      119.97
                      9 H9       7 C7      10 H10      118.84

           ***************************************************************
           *              Valence Dihedral Angles / Degree               *
           ***************************************************************
                    Atom centers                       Phi1     Phi2     Theta 
           3 H3       1 C1       2 C2       5 C5        119.97   121.13   180.00
           3 H3       1 C1       2 C2       6 H6        119.97   118.98    -0.00
           4 H4       1 C1       2 C2       5 C5        121.18   121.13    -0.00
           4 H4       1 C1       2 C2       6 H6        121.18   118.98   180.00
           1 C1       2 C2       5 C5       7 C7        121.13   121.13   180.00
           1 C1       2 C2       5 C5       8 H8        121.13   119.90    -0.00
           6 H6       2 C2       5 C5       7 C7        119.90   121.13    -0.00
           6 H6       2 C2       5 C5       8 H8        119.90   119.90   180.00
           2 C2       5 C5       7 C7       9 H9        121.13   121.18    -0.00
           2 C2       5 C5       7 C7      10 H10       121.13   119.97  -180.00
           8 H8       5 C5       7 C7       9 H9        118.98   121.18   180.00
           8 H8       5 C5       7 C7      10 H10       118.98   119.97    -0.00
--


            Nuclear Potential Energy            103.85294518 au

--- Stop Module: gateway at Tue May 14 15:12:02 2024 /rc=_RC_ALL_IS_WELL_ ---
*** files: xmldump
    saved to directory /home/kenya/molcas_test/0514

--- Start Module: seward at Tue May 14 15:12:02 2024 ---

()()()()()()()()()()()()()()()()()()()()()()()()()()()()()()()()()()()()()()()()()()()()()()()()()()

                                              &SEWARD

                                   only a single process is used
                       available to each process: 2.0 GB of memory, 1 thread
                                             pid: 42231
()()()()()()()()()()()()()()()()()()()()()()()()()()()()()()()()()()()()()()()()()()()()()()()()()()

               SEWARD will generate:
                  Multipole Moment integrals up to order  2
                  Kinetic Energy integrals
                  Nuclear Attraction integrals (point charge)
                  One-Electron Hamiltonian integrals
                  Velocity integrals
                  Orbital angular momentum around (-1.3002  0.5663 -0.0000 )
                  Velocity quadrupole around (-1.3002  0.5663 -0.0000 )
                  Two-Electron Repulsion integrals

                   Integrals are discarded if absolute value <: 1.00E-14
                   Integral cutoff threshold is set to       <: 1.00E-16

            Nuclear Potential Energy            103.85294518 au


      Basis set specifications :
      Symmetry species         a  
      Basis functions           72


      Input file to MOLDEN was generated!

--- Stop Module: seward at Tue May 14 15:12:04 2024 /rc=_RC_ALL_IS_WELL_ ---
*** files: trans-1,3-butadiene.GssOrb trans-1,3-butadiene.guessorb.molden xmldump
    saved to directory /home/kenya/molcas_test/0514
--- Module seward spent 1 second ---

*** symbolic link created: INPORB -> trans-1,3-butadiene.GssOrb
--- Start Module: scf at Tue May 14 15:12:04 2024 ---

()()()()()()()()()()()()()()()()()()()()()()()()()()()()()()()()()()()()()()()()()()()()()()()()()()

                                                &SCF

                                   only a single process is used
                       available to each process: 2.0 GB of memory, 1 thread
                                             pid: 42268
()()()()()()()()()()()()()()()()()()()()()()()()()()()()()()()()()()()()()()()()()()()()()()()()()()

++    Input section:
      --------------

      Header of the integral files:
      
       Integrals generated by Gateway/Seward, Tue May 14 15:12:02 2024


      Cartesian coordinates in Angstrom:
      -----------------------------------------------------
      No.  Label        X            Y            Z        
      -----------------------------------------------------
       1   C1        -2.39849000   0.94826000   0.00254000
       2   C2        -1.39058000   0.07319000  -0.01793000
       3   H3        -3.42413000   0.59466000  -0.02450000
       4   H4        -2.21395000   2.01764000   0.04610000
       5   C5         0.01453000   0.52619000   0.01789000
       6   H6        -1.61634000  -0.98896000  -0.06175000
       7   C7         1.02244000  -0.34888000  -0.00252000
       8   H8         0.24030000   1.58834000   0.06167000
       9   H9         0.83791000  -1.41827000  -0.04602000
      10   H10        2.04809000   0.00471000   0.02452000
      -----------------------------------------------------
      Nuclear repulsion energy =  103.85294518
--

++    Orbital specifications:
      -----------------------

      Symmetry species               1
                                     a
      Frozen orbitals                0
      Occupied orbitals             15
      Secondary orbitals            57
      Deleted orbitals               0
      Total number of orbitals      72
      Number of basis functions     72
--

      Molecular charge                           0.000

++    Optimization specifications:
      ----------------------------

      SCF Algorithm: Conventional
      Minimized density differences are used
      Number of density matrices in core                 5
      Maximum number of NDDO SCF iterations            400
      Maximum number of HF SCF iterations              400
      Threshold for SCF energy change             1.00E-09
      Threshold for density matrix                1.00E-04
      Threshold for Fock matrix                   1.50E-04
      Threshold for linear dependence             1.00E-09
      Threshold at which DIIS is turned on        1.50E-01
      Maximum depth in the DIIS procedure                5
      Maximum depth in the BFGS Hessian update          30
      Threshold at which QNR/C2DIIS is turned on  7.50E-02
      Threshold for Norm(delta) (QNR/C2DIIS)      1.00E-03
      All orbitals punched on: SCFORB
--

      Input vectors read from INPORB
      Orbital file label: *Guess orbitals


++ Convergence information
                                   SCF        iterations: Energy and convergence statistics

Iter     Tot. SCF        One-elec.       Two-elec.     Energy      Max Dij or  Max Fij      DNorm      TNorm      AccCon     Time
         Energy          Energy          Energy        Change      Delta Norm                                                in Sec.
   1  -154.618409774  -408.892393568   150.421038612   0.00E+00    1.58E-01*   1.38E-01*    5.64E+00   1.65E+02   None         0.
   2  -154.889642436  -414.559130868   155.816543249  -2.71E-01*   1.06E-01*   6.05E-02*    1.18E+00   1.68E+02   EDIIS        0.
   3  -154.913019820  -412.613536789   153.847571788  -2.34E-02*   2.43E-02*   9.65E-03*    4.35E-01   1.66E+02   c2DIIS       0.
   4  -154.916772889  -413.267849503   154.498131432  -3.75E-03*   1.45E-02*   5.83E-03*    1.24E-01   1.67E+02   QNRc2DIIS    0.
   5  -154.917056816  -413.156570354   154.386568356  -2.84E-04*   5.22E-03*   2.28E-03*    3.13E-02   1.67E+02   QNRc2DIIS    0.
   6  -154.917149401  -413.193377379   154.423282796  -9.26E-05*   9.12E-04    2.41E-04*    3.49E-03   1.67E+02   QNRc2DIIS    0.
   7  -154.917150909  -413.200931800   154.430835708  -1.51E-06*   1.19E-04    6.10E-05     7.25E-04   1.67E+02   QNRc2DIIS    0.
   8  -154.917150947  -413.199064923   154.428968794  -3.79E-08*   4.95E-05    1.37E-05     1.29E-04   1.67E+02   QNRc2DIIS    0.
   9  -154.917150951  -413.199200502   154.429104369  -3.75E-09*   1.25E-05    2.70E-06     3.98E-05   1.67E+02   QNRc2DIIS    0.
  10  -154.917150951  -413.199215491   154.429119358  -2.22E-10    5.02E-06    9.25E-07     2.61E-05   1.67E+02   QNRc2DIIS    0.

       Convergence after  10 Macro Iterations
--

 *****************************************************************************************************************************
 *                                                                                                                           *
 *                                             SCF/KS-DFT Program, Final results                                             *
 *                                                                                                                           *
 *                                                                                                                           *
 *                                                                                                                           *
 *                                                       Final Results                                                       *
 *                                                                                                                           *
 *****************************************************************************************************************************

::    Total SCF energy                               -154.9171509512
      One-electron energy                            -413.1992154911
      Two-electron energy                             154.4291193578
      Nuclear repulsion energy                        103.8529451821
      Kinetic energy (interpolated)                   154.6388197112
      Virial theorem                                    1.0017998795
      Total spin, S(S+1)                                0.0000000000
      Total spin, S                                     0.0000000000
      Max non-diagonal density matrix element           0.0000051680
      Max non-diagonal Fock matrix element              0.0000008333


      All orbitals with orbital energies smaller than  E(LUMO)+0.5 are printed

++    Molecular orbitals:
      -------------------

      Title: SCF orbitals

      Molecular orbitals for symmetry species 1: a  

          Orbital            1         2         3         4         5         6         7         8         9        10    
          Energy          -11.2372  -11.2365  -11.2252  -11.2252   -1.0849   -0.9955   -0.8128   -0.7513   -0.6341   -0.6338
          Occ. No.          2.0000    2.0000    2.0000    2.0000    2.0000    2.0000    2.0000    2.0000    2.0000    2.0000

        1 C1     1s         0.0481   -0.0521   -0.5949    0.7951   -0.0906    0.1272   -0.1072   -0.0496    0.0075    0.0178
        2 C1     2s         0.0010   -0.0013   -0.0164    0.0220    0.1704   -0.2403    0.2068    0.0966   -0.0135   -0.0338
        3 C1     *s         0.0027   -0.0025    0.0067   -0.0100    0.1371   -0.1961    0.2046    0.0998   -0.0166   -0.0595
        4 C1     2px       -0.0001    0.0001   -0.0000    0.0000    0.0640   -0.0500   -0.0870   -0.0375   -0.0883    0.2865
        5 C1     *px        0.0013   -0.0010    0.0002   -0.0009    0.0088   -0.0080   -0.0369   -0.0177   -0.0412    0.1213
        6 C1     2py        0.0001   -0.0001    0.0000   -0.0000   -0.0452    0.0513    0.0398    0.1410   -0.2354   -0.0632
        7 C1     *py       -0.0005    0.0005   -0.0003    0.0005   -0.0072   -0.0032    0.0168    0.0475   -0.1036   -0.0135
        8 C1     2pz        0.0000   -0.0000   -0.0000    0.0000   -0.0009    0.0013    0.0004    0.0049   -0.0102    0.0013
        9 C1     *pz       -0.0000    0.0000   -0.0000    0.0000   -0.0002   -0.0002    0.0002    0.0016   -0.0045    0.0011
       10 C1     *200      -0.0001    0.0002    0.0006   -0.0008    0.0044   -0.0055    0.0047    0.0025    0.0040   -0.0054
       11 C1     *110      -0.0000   -0.0000    0.0001   -0.0002   -0.0054    0.0039    0.0087    0.0097   -0.0036   -0.0172
       12 C1     *101      -0.0000    0.0000   -0.0000    0.0000    0.0000   -0.0002    0.0006    0.0005   -0.0000   -0.0008
       13 C1     *020      -0.0002    0.0002    0.0006   -0.0008    0.0030   -0.0054    0.0066    0.0043   -0.0065   -0.0013
       14 C1     *011      -0.0000    0.0000   -0.0000    0.0000    0.0005   -0.0008    0.0010    0.0007   -0.0006   -0.0004
       15 C1     *002      -0.0001    0.0001    0.0009   -0.0012   -0.0043    0.0061   -0.0053   -0.0027    0.0006    0.0013
       16 C2     1s         0.7023   -0.7022    0.0406   -0.0590   -0.1318    0.0862    0.0727    0.0836   -0.0083   -0.0338
       17 C2     2s         0.0194   -0.0193    0.0014   -0.0018    0.2530   -0.1669   -0.1457   -0.1639    0.0140    0.0713
       18 C2     *s        -0.0064    0.0113   -0.0025    0.0047    0.1661   -0.1175   -0.1353   -0.1713    0.0161    0.0426
       19 C2     2px        0.0001   -0.0002   -0.0001    0.0001    0.0139    0.1253   -0.1650    0.0565   -0.2095   -0.0931
       20 C2     *px        0.0008    0.0012    0.0007   -0.0011    0.0120    0.0329   -0.0450    0.0119   -0.0656   -0.0332
       21 C2     2py        0.0000   -0.0001    0.0000   -0.0002    0.0500   -0.0583    0.0410    0.1702   -0.1311    0.2007
       22 C2     *py       -0.0008    0.0009   -0.0002    0.0012   -0.0112    0.0012    0.0249    0.0706   -0.0650    0.0622
       23 C2     2pz        0.0000   -0.0000    0.0000   -0.0000    0.0021   -0.0006   -0.0006    0.0073   -0.0078    0.0065
       24 C2     *pz       -0.0000    0.0001   -0.0000    0.0000   -0.0003    0.0005    0.0004    0.0029   -0.0034    0.0020
       25 C2     *200      -0.0009    0.0004   -0.0000   -0.0001    0.0078    0.0012   -0.0044    0.0020   -0.0031   -0.0034
       26 C2     *110      -0.0003    0.0000   -0.0000   -0.0000   -0.0006    0.0092   -0.0135   -0.0012   -0.0006   -0.0058
       27 C2     *101      -0.0000   -0.0000    0.0000   -0.0000    0.0003    0.0003   -0.0007   -0.0001   -0.0001   -0.0003
       28 C2     *020      -0.0008    0.0006    0.0000   -0.0001    0.0038   -0.0045   -0.0032   -0.0089    0.0046   -0.0003
       29 C2     *011       0.0000   -0.0000    0.0000   -0.0000    0.0008   -0.0005   -0.0007   -0.0010    0.0004   -0.0001
       30 C2     *002      -0.0010    0.0009   -0.0000    0.0000   -0.0064    0.0033    0.0036    0.0038   -0.0005   -0.0006
       31 H3     1s        -0.0000    0.0000    0.0001   -0.0001    0.0400   -0.0747    0.1220    0.0414    0.0831   -0.1678
       32 H3     *s         0.0003    0.0000   -0.0013    0.0016    0.0046   -0.0205    0.0524    0.0200    0.0533   -0.1131
       33 H4     1s        -0.0001    0.0000    0.0001   -0.0001    0.0448   -0.0698    0.1015    0.1149   -0.1501   -0.0288
       34 H4     *s        -0.0002    0.0001   -0.0013    0.0017    0.0072   -0.0114    0.0444    0.0653   -0.0987   -0.0241
       35 C5     1s         0.7022    0.7022    0.0556    0.0451   -0.1318   -0.0862    0.0727   -0.0836   -0.0085    0.0337
       36 C5     2s         0.0194    0.0193    0.0018    0.0013    0.2530    0.1669   -0.1456    0.1639    0.0144   -0.0713
       37 C5     *s        -0.0064   -0.0113   -0.0037   -0.0038    0.1661    0.1175   -0.1353    0.1713    0.0163   -0.0425
       38 C5     2px       -0.0001   -0.0002    0.0001    0.0001   -0.0139    0.1253    0.1650    0.0565    0.2100   -0.0919
       39 C5     *px       -0.0008    0.0012   -0.0010   -0.0009   -0.0120    0.0329    0.0450    0.0119    0.0658   -0.0329
       40 C5     2py       -0.0000   -0.0001   -0.0001   -0.0001   -0.0500   -0.0583   -0.0410    0.1702    0.1300    0.2014
       41 C5     *py        0.0008    0.0009    0.0006    0.0011    0.0112    0.0012   -0.0249    0.0706    0.0647    0.0626
       42 C5     2pz       -0.0000   -0.0000   -0.0000   -0.0000   -0.0021   -0.0006    0.0006    0.0073    0.0077    0.0065
       43 C5     *pz        0.0000    0.0001    0.0000    0.0000    0.0003    0.0005   -0.0004    0.0029    0.0033    0.0020
       44 C5     *200      -0.0009   -0.0004    0.0000    0.0001    0.0078   -0.0012   -0.0044   -0.0020   -0.0031    0.0033
       45 C5     *110      -0.0003   -0.0000    0.0000    0.0000   -0.0006   -0.0092   -0.0135    0.0012   -0.0007    0.0058
       46 C5     *101      -0.0000    0.0000    0.0000    0.0000    0.0003   -0.0003   -0.0007    0.0001   -0.0001    0.0003
       47 C5     *020      -0.0008   -0.0006    0.0001    0.0001    0.0038    0.0045   -0.0032    0.0089    0.0046    0.0003
       48 C5     *011       0.0000    0.0000    0.0000    0.0000    0.0008    0.0005   -0.0007    0.0010    0.0004    0.0001
       49 C5     *002      -0.0010   -0.0009   -0.0000   -0.0000   -0.0064   -0.0033    0.0036   -0.0038   -0.0005    0.0006
       50 H6     1s        -0.0002    0.0000    0.0001   -0.0000    0.0643   -0.0455   -0.0645   -0.1671    0.1044   -0.0700
       51 H6     *s         0.0010   -0.0014    0.0003   -0.0001    0.0061   -0.0052   -0.0215   -0.0855    0.0644   -0.0555
       52 C7     1s         0.0481    0.0521   -0.7954   -0.5946   -0.0906   -0.1272   -0.1072    0.0496    0.0076   -0.0177
       53 C7     2s         0.0010    0.0013   -0.0220   -0.0165    0.1704    0.2403    0.2068   -0.0966   -0.0137    0.0337
       54 C7     *s         0.0027    0.0025    0.0092    0.0077    0.1371    0.1961    0.2046   -0.0998   -0.0169    0.0594
       55 C7     2px        0.0001    0.0001    0.0000    0.0000   -0.0640   -0.0500    0.0870   -0.0375    0.0867    0.2870
       56 C7     *px       -0.0013   -0.0010   -0.0004   -0.0008   -0.0088   -0.0080    0.0369   -0.0177    0.0406    0.1215
       57 C7     2py       -0.0001   -0.0001   -0.0000   -0.0000    0.0452    0.0513   -0.0398    0.1410    0.2358   -0.0619
       58 C7     *py        0.0005    0.0005    0.0004    0.0004    0.0072   -0.0032   -0.0168    0.0475    0.1036   -0.0129
       59 C7     2pz       -0.0000   -0.0000    0.0000   -0.0000    0.0009    0.0013   -0.0004    0.0049    0.0102    0.0014
       60 C7     *pz        0.0000    0.0000    0.0000    0.0000    0.0002   -0.0002   -0.0002    0.0016    0.0045    0.0011
       61 C7     *200      -0.0001   -0.0002    0.0008    0.0006    0.0044    0.0055    0.0047   -0.0025    0.0040    0.0055
       62 C7     *110      -0.0000    0.0000    0.0002    0.0001   -0.0054   -0.0039    0.0087   -0.0097   -0.0037    0.0172
       63 C7     *101      -0.0000   -0.0000   -0.0000   -0.0000    0.0000    0.0002    0.0006   -0.0005   -0.0001    0.0008
       64 C7     *020      -0.0002   -0.0002    0.0009    0.0006    0.0030    0.0054    0.0066   -0.0043   -0.0065    0.0013
       65 C7     *011      -0.0000   -0.0000   -0.0000   -0.0000    0.0005    0.0008    0.0010   -0.0007   -0.0006    0.0004
       66 C7     *002      -0.0001   -0.0001    0.0012    0.0009   -0.0043   -0.0061   -0.0053    0.0027    0.0006   -0.0013
       67 H8     1s        -0.0002   -0.0000    0.0001   -0.0000    0.0643    0.0455   -0.0645    0.1671    0.1040    0.0706
       68 H8     *s         0.0010    0.0014    0.0003    0.0000    0.0061    0.0053   -0.0215    0.0855    0.0641    0.0558
       69 H9     1s        -0.0001   -0.0000    0.0001    0.0001    0.0448    0.0698    0.1015   -0.1149   -0.1502    0.0280
       70 H9     *s        -0.0002   -0.0001   -0.0017   -0.0013    0.0072    0.0114    0.0444   -0.0653   -0.0988    0.0235
       71 H10    1s        -0.0000   -0.0000    0.0001    0.0001    0.0400    0.0747    0.1220   -0.0414    0.0821    0.1683
       72 H10    *s         0.0003   -0.0000   -0.0017   -0.0011    0.0046    0.0205    0.0524   -0.0200    0.0527    0.1134

          Orbital           11        12        13        14        15        16        17        18        19        20    
          Energy           -0.5462   -0.5409   -0.4925   -0.4367   -0.3175    0.1338    0.2539    0.2593    0.2692    0.2735
          Occ. No.          2.0000    2.0000    2.0000    2.0000    2.0000    0.0000    0.0000    0.0000    0.0000    0.0000

        1 C1     1s         0.0217   -0.0048   -0.0014    0.0000    0.0000   -0.0000   -0.0000    0.0208   -0.0525    0.0883
        2 C1     2s        -0.0477    0.0112    0.0035   -0.0000   -0.0000    0.0000    0.0000   -0.0184    0.0430   -0.1043
        3 C1     *s        -0.0216   -0.0045    0.0145   -0.0000   -0.0000    0.0000    0.0001   -0.3413    1.0356   -1.4720
        4 C1     2px       -0.2426   -0.0969    0.1653   -0.0029    0.0040   -0.0038    0.0021   -0.0684   -0.1325    0.0898
        5 C1     *px       -0.0877   -0.0715    0.1092   -0.0022    0.0036   -0.0067    0.0071   -0.1847   -0.3939    0.4768
        6 C1     2py        0.1597   -0.2688    0.1165   -0.0086    0.0117   -0.0112    0.0063   -0.1382    0.0671   -0.0411
        7 C1     *py        0.0634   -0.1462    0.0734   -0.0064    0.0107   -0.0197    0.0212   -0.4300    0.3590   -0.1219
        8 C1     2pz        0.0030   -0.0116    0.0066    0.2230   -0.3042    0.2913   -0.1638   -0.0062    0.0008   -0.0004
        9 C1     *pz        0.0013   -0.0066    0.0043    0.1672   -0.2774    0.5115   -0.5526   -0.0189    0.0086    0.0015
       10 C1     *200       0.0022    0.0113   -0.0131   -0.0002    0.0002    0.0002   -0.0002   -0.0047   -0.0044    0.0038
       11 C1     *110       0.0156   -0.0012   -0.0059   -0.0004    0.0003    0.0004   -0.0002   -0.0019   -0.0072    0.0042
       12 C1     *101       0.0007    0.0002   -0.0006    0.0142   -0.0127   -0.0124    0.0122   -0.0002   -0.0003    0.0002
       13 C1     *020       0.0033   -0.0131    0.0123    0.0004   -0.0005   -0.0003    0.0008    0.0046    0.0021    0.0014
       14 C1     *011       0.0005   -0.0010    0.0009   -0.0111    0.0119    0.0070   -0.0198    0.0002    0.0003   -0.0000
       15 C1     *002      -0.0001    0.0000    0.0001   -0.0002    0.0003    0.0001   -0.0006    0.0019   -0.0027    0.0023
       16 C2     1s         0.0027    0.0180    0.0150   -0.0000   -0.0000   -0.0000   -0.0000   -0.0434   -0.0394    0.0170
       17 C2     2s        -0.0066   -0.0353   -0.0335    0.0000   -0.0000   -0.0000    0.0000    0.0442    0.0375    0.0067
       18 C2     *s         0.0204   -0.0441   -0.0438    0.0000    0.0000    0.0000    0.0002    0.6551    0.8801   -0.6425
       19 C2     2px        0.1939   -0.0559   -0.2437   -0.0038    0.0031    0.0029   -0.0040   -0.0471   -0.0213   -0.0336
       20 C2     *px        0.0739    0.0089   -0.1082   -0.0027    0.0027    0.0048   -0.0102   -0.1311   -0.1214   -0.5231
       21 C2     2py       -0.2355    0.1508   -0.1657   -0.0113    0.0090    0.0086   -0.0118   -0.1597   -0.1385    0.0453
       22 C2     *py       -0.1122    0.0947   -0.1228   -0.0080    0.0078    0.0141   -0.0302   -0.4552   -0.6525    0.0202
       23 C2     2pz       -0.0065    0.0051   -0.0096    0.2933   -0.2345   -0.2232    0.3059   -0.0068   -0.0056    0.0013
       24 C2     *pz       -0.0034    0.0038   -0.0061    0.2071   -0.2030   -0.3678    0.7841   -0.0194   -0.0267   -0.0060
       25 C2     *200      -0.0030    0.0066   -0.0126    0.0000   -0.0003    0.0003    0.0001    0.0068   -0.0012   -0.0051
       26 C2     *110       0.0222   -0.0026   -0.0041   -0.0001   -0.0007    0.0009    0.0006   -0.0058    0.0078    0.0160
       27 C2     *101       0.0008    0.0001   -0.0005   -0.0011    0.0237   -0.0256   -0.0088    0.0000    0.0003    0.0004
       28 C2     *020       0.0078   -0.0099    0.0143   -0.0005    0.0005   -0.0002    0.0008   -0.0084   -0.0009    0.0041
       29 C2     *011       0.0009   -0.0009    0.0010    0.0126   -0.0125    0.0062   -0.0196   -0.0005    0.0001    0.0004
       30 C2     *002      -0.0005    0.0008    0.0002    0.0005   -0.0002   -0.0001   -0.0009   -0.0027   -0.0010    0.0012
       31 H3     1s         0.0968    0.1242   -0.1419    0.0000   -0.0000   -0.0000   -0.0000   -0.0079   -0.0312    0.0204
       32 H3     *s         0.0901    0.0908   -0.1200    0.0000   -0.0000   -0.0000   -0.0002   -0.3291   -0.8986    1.1194
       33 H4     1s         0.0610   -0.1824    0.1139   -0.0000    0.0000    0.0000    0.0000    0.0148    0.0060    0.0215
       34 H4     *s         0.0603   -0.1385    0.1046    0.0000    0.0000   -0.0000    0.0000    0.8552   -0.6643    0.7844
       35 C5     1s         0.0027   -0.0180    0.0150    0.0000    0.0000   -0.0000    0.0000    0.0434   -0.0394   -0.0170
       36 C5     2s        -0.0066    0.0353   -0.0335   -0.0000   -0.0000    0.0000   -0.0000   -0.0442    0.0375   -0.0067
       37 C5     *s         0.0204    0.0441   -0.0438    0.0000   -0.0000    0.0000   -0.0002   -0.6552    0.8802    0.6424
       38 C5     2px       -0.1939   -0.0559    0.2437   -0.0038   -0.0031    0.0029    0.0040   -0.0471    0.0212   -0.0336
       39 C5     *px       -0.0739    0.0089    0.1082   -0.0027   -0.0027    0.0048    0.0103   -0.1311    0.1214   -0.5231
       40 C5     2py        0.2355    0.1508    0.1657   -0.0113   -0.0090    0.0086    0.0117   -0.1597    0.1385    0.0453
       41 C5     *py        0.1122    0.0947    0.1228   -0.0080   -0.0078    0.0141    0.0301   -0.4552    0.6525    0.0201
       42 C5     2pz        0.0065    0.0051    0.0096    0.2933    0.2345   -0.2232   -0.3060   -0.0067    0.0056    0.0013
       43 C5     *pz        0.0033    0.0038    0.0061    0.2071    0.2030   -0.3678   -0.7841   -0.0191    0.0267   -0.0062
       44 C5     *200      -0.0030   -0.0066   -0.0126   -0.0000   -0.0003   -0.0003    0.0001   -0.0068   -0.0012    0.0051
       45 C5     *110       0.0222    0.0026   -0.0041    0.0001   -0.0007   -0.0009    0.0006    0.0058    0.0078   -0.0160
       46 C5     *101       0.0008   -0.0001   -0.0005    0.0011    0.0237    0.0256   -0.0088   -0.0000    0.0003   -0.0005
       47 C5     *020       0.0078    0.0099    0.0143    0.0005    0.0005    0.0002    0.0008    0.0084   -0.0009   -0.0041
       48 C5     *011       0.0009    0.0009    0.0010   -0.0126   -0.0125   -0.0062   -0.0196    0.0005    0.0001   -0.0004
       49 C5     *002      -0.0005   -0.0008    0.0002   -0.0005   -0.0002    0.0001   -0.0009    0.0027   -0.0010   -0.0012
       50 H6     1s         0.1320   -0.1112    0.1426    0.0000    0.0000   -0.0000   -0.0000   -0.0430    0.0248    0.0331
       51 H6     *s         0.1108   -0.0752    0.1232    0.0000    0.0000   -0.0000   -0.0002   -1.1295   -1.0056    0.2664
       52 C7     1s         0.0217    0.0048   -0.0014    0.0000   -0.0000   -0.0000    0.0000   -0.0208   -0.0525   -0.0883
       53 C7     2s        -0.0477   -0.0112    0.0035   -0.0000    0.0000    0.0000   -0.0000    0.0184    0.0430    0.1043
       54 C7     *s        -0.0216    0.0045    0.0145   -0.0000    0.0000    0.0000   -0.0001    0.3413    1.0357    1.4718
       55 C7     2px        0.2426   -0.0969   -0.1653   -0.0029   -0.0040   -0.0038   -0.0022   -0.0684    0.1325    0.0898
       56 C7     *px        0.0877   -0.0715   -0.1092   -0.0022   -0.0036   -0.0067   -0.0073   -0.1847    0.3940    0.4768
       57 C7     2py       -0.1597   -0.2688   -0.1165   -0.0086   -0.0117   -0.0112   -0.0063   -0.1382   -0.0671   -0.0411
       58 C7     *py       -0.0634   -0.1462   -0.0735   -0.0064   -0.0107   -0.0197   -0.0213   -0.4300   -0.3590   -0.1219
       59 C7     2pz       -0.0030   -0.0116   -0.0066    0.2230    0.3042    0.2913    0.1638   -0.0062   -0.0008   -0.0004
       60 C7     *pz       -0.0013   -0.0066   -0.0043    0.1672    0.2774    0.5115    0.5526   -0.0190   -0.0086    0.0017
       61 C7     *200       0.0022   -0.0113   -0.0131    0.0002    0.0002   -0.0002   -0.0002    0.0047   -0.0044   -0.0038
       62 C7     *110       0.0156    0.0012   -0.0059    0.0004    0.0003   -0.0004   -0.0002    0.0019   -0.0072   -0.0042
       63 C7     *101       0.0007   -0.0002   -0.0006   -0.0142   -0.0127    0.0124    0.0122    0.0002   -0.0003   -0.0002
       64 C7     *020       0.0033    0.0131    0.0123   -0.0004   -0.0005    0.0003    0.0008   -0.0046    0.0021   -0.0014
       65 C7     *011       0.0005    0.0010    0.0009    0.0111    0.0119   -0.0070   -0.0198   -0.0002    0.0003    0.0000
       66 C7     *002      -0.0001   -0.0000    0.0001    0.0002    0.0003   -0.0001   -0.0006   -0.0019   -0.0027   -0.0023
       67 H8     1s         0.1320    0.1112    0.1426    0.0000   -0.0000   -0.0000    0.0000    0.0430    0.0248   -0.0331
       68 H8     *s         0.1108    0.0752    0.1232    0.0000   -0.0000   -0.0000    0.0002    1.1296   -1.0056   -0.2663
       69 H9     1s         0.0610    0.1824    0.1139   -0.0000   -0.0000    0.0000    0.0000   -0.0148    0.0060   -0.0215
       70 H9     *s         0.0603    0.1385    0.1046    0.0000   -0.0000   -0.0000   -0.0000   -0.8552   -0.6644   -0.7843
       71 H10    1s         0.0968   -0.1242   -0.1419    0.0000   -0.0000   -0.0000    0.0000    0.0079   -0.0312   -0.0203
       72 H10    *s         0.0901   -0.0908   -0.1200    0.0000   -0.0000   -0.0000    0.0002    0.3292   -0.8987   -1.1193

          Orbital           21        22        23        24        25        26    
          Energy            0.3334    0.3464    0.3609    0.4837    0.4941    0.5717
          Occ. No.          0.0000    0.0000    0.0000    0.0000    0.0000    0.0000

        1 C1     1s         0.0582    0.0171   -0.0496    0.0384    0.0567    0.0367
        2 C1     2s        -0.0561   -0.0204    0.0408    0.0639    0.0187   -0.0741
        3 C1     *s        -1.0599   -0.1682    0.9278   -2.7720   -1.4727   -1.4660
        4 C1     2px       -0.0717    0.1200   -0.1566    0.0363    0.0246   -0.1310
        5 C1     *px       -0.5156    0.6601   -0.6768   -1.7118   -1.7585   -0.8231
        6 C1     2py       -0.1765    0.1197   -0.0954    0.0529   -0.1042    0.1020
        7 C1     *py       -0.6479    0.7782   -0.8677    1.3890    0.0607    1.8283
        8 C1     2pz       -0.0077    0.0062   -0.0057    0.0025   -0.0037    0.0022
        9 C1     *pz       -0.0317    0.0386   -0.0422    0.0310   -0.0207    0.0596
       10 C1     *200      -0.0043    0.0056    0.0047   -0.0146    0.0093   -0.0053
       11 C1     *110      -0.0054   -0.0051    0.0043   -0.0159   -0.0186   -0.0120
       12 C1     *101      -0.0004   -0.0001    0.0003   -0.0012   -0.0006   -0.0005
       13 C1     *020       0.0060   -0.0059   -0.0051   -0.0003   -0.0144   -0.0013
       14 C1     *011       0.0002   -0.0007   -0.0002   -0.0009   -0.0018   -0.0001
       15 C1     *002       0.0023    0.0018   -0.0022    0.0080    0.0064   -0.0024
       16 C2     1s        -0.0428   -0.0802    0.0415   -0.0444   -0.0902   -0.0035
       17 C2     2s         0.0564    0.1150   -0.0219    0.0226    0.0106   -0.0076
       18 C2     *s         0.6905    1.0820   -1.2592    2.2512    3.4093    0.4716
       19 C2     2px       -0.0397    0.1136    0.0885   -0.0269    0.0110   -0.2233
       20 C2     *px       -0.1214    0.0940    0.5067   -1.6011    1.2940   -2.8594
       21 C2     2py       -0.0539   -0.0500    0.0957    0.1420    0.2113   -0.0333
       22 C2     *py       -0.0169   -0.5115    0.7685    2.3728    1.6009   -0.0365
       23 C2     2pz       -0.0026   -0.0004    0.0048    0.0051    0.0083   -0.0042
       24 C2     *pz       -0.0022   -0.0185    0.0362    0.0703    0.0785   -0.0388
       25 C2     *200       0.0062   -0.0134    0.0034    0.0127    0.0078   -0.0021
       26 C2     *110       0.0074   -0.0108    0.0000   -0.0096   -0.0117    0.0339
       27 C2     *101       0.0005   -0.0008    0.0000    0.0001   -0.0001    0.0013
       28 C2     *020      -0.0083    0.0079   -0.0059   -0.0006    0.0067    0.0056
       29 C2     *011      -0.0005    0.0004   -0.0007    0.0001    0.0008    0.0011
       30 C2     *002      -0.0005    0.0015    0.0032   -0.0034   -0.0058   -0.0027
       31 H3     1s        -0.0118    0.0279    0.0259   -0.1132    0.0031   -0.0808
       32 H3     *s        -0.3684    1.1693   -1.4524   -0.2060   -0.7077   -0.0296
       33 H4     1s         0.0351   -0.0274   -0.0391   -0.0250   -0.1061   -0.0603
       34 H4     *s         1.4924   -0.8816    0.5027   -0.2687    0.7654   -1.1075
       35 C5     1s        -0.0428    0.0802    0.0415   -0.0444    0.0902    0.0035
       36 C5     2s         0.0564   -0.1150   -0.0219    0.0226   -0.0106    0.0076
       37 C5     *s         0.6904   -1.0821   -1.2591    2.2508   -3.4095   -0.4717
       38 C5     2px        0.0397    0.1136   -0.0885    0.0269    0.0110   -0.2233
       39 C5     *px        0.1214    0.0940   -0.5067    1.6012    1.2938   -2.8594
       40 C5     2py        0.0539   -0.0501   -0.0957   -0.1420    0.2113   -0.0333
       41 C5     *py        0.0169   -0.5115   -0.7684   -2.3726    1.6012   -0.0365
       42 C5     2pz        0.0026   -0.0004   -0.0048   -0.0051    0.0083   -0.0042
       43 C5     *pz        0.0023   -0.0184   -0.0362   -0.0702    0.0785   -0.0389
       44 C5     *200       0.0062    0.0134    0.0034    0.0127   -0.0078    0.0021
       45 C5     *110       0.0074    0.0108    0.0000   -0.0096    0.0117   -0.0339
       46 C5     *101       0.0005    0.0008    0.0000    0.0001    0.0001   -0.0013
       47 C5     *020      -0.0083   -0.0079   -0.0059   -0.0006   -0.0067   -0.0056
       48 C5     *011      -0.0005   -0.0004   -0.0007    0.0001   -0.0008   -0.0011
       49 C5     *002      -0.0005   -0.0015    0.0032   -0.0034    0.0058    0.0027
       50 H6     1s        -0.0485   -0.0047   -0.0176   -0.0073   -0.0082    0.0699
       51 H6     *s        -0.6023   -1.0026    1.2528    1.2263    0.7394   -0.6637
       52 C7     1s         0.0582   -0.0171   -0.0496    0.0384   -0.0567   -0.0367
       53 C7     2s        -0.0561    0.0204    0.0408    0.0639   -0.0187    0.0741
       54 C7     *s        -1.0598    0.1683    0.9278   -2.7718    1.4731    1.4661
       55 C7     2px        0.0717    0.1200    0.1566   -0.0363    0.0246   -0.1310
       56 C7     *px        0.5156    0.6601    0.6767    1.7116   -1.7588   -0.8231
       57 C7     2py        0.1765    0.1197    0.0954   -0.0529   -0.1042    0.1020
       58 C7     *py        0.6479    0.7782    0.8676   -1.3890    0.0609    1.8284
       59 C7     2pz        0.0077    0.0062    0.0057   -0.0025   -0.0037    0.0022
       60 C7     *pz        0.0316    0.0386    0.0422   -0.0309   -0.0207    0.0595
       61 C7     *200      -0.0043   -0.0056    0.0047   -0.0146   -0.0093    0.0053
       62 C7     *110      -0.0054    0.0051    0.0043   -0.0159    0.0186    0.0120
       63 C7     *101      -0.0004    0.0001    0.0003   -0.0012    0.0006    0.0005
       64 C7     *020       0.0060    0.0059   -0.0051   -0.0003    0.0144    0.0013
       65 C7     *011       0.0002    0.0007   -0.0002   -0.0009    0.0018    0.0001
       66 C7     *002       0.0023   -0.0018   -0.0022    0.0080   -0.0064    0.0024
       67 H8     1s        -0.0485    0.0047   -0.0176   -0.0073    0.0082   -0.0699
       68 H8     *s        -0.6023    1.0027    1.2527    1.2262   -0.7396    0.6637
       69 H9     1s         0.0352    0.0274   -0.0391   -0.0249    0.1061    0.0603
       70 H9     *s         1.4924    0.8816    0.5026   -0.2688   -0.7653    1.1075
       71 H10    1s        -0.0118   -0.0279    0.0259   -0.1132   -0.0031    0.0808
       72 H10    *s        -0.3684   -1.1694   -1.4523   -0.2059    0.7078    0.0296
--


++    Molecular charges:
      ------------------

      Mulliken charges per centre and basis function type
      ---------------------------------------------------

                C1      C2      H3      H4      C5      H6      C7      H8      H9      H10   
      1s       1.9965  1.9966  0.5237  0.5233  1.9966  0.5249  1.9965  0.5249  0.5233  0.5237
      2s       0.6593  0.6698  0.0000  0.0000  0.6698  0.0000  0.6593  0.0000  0.0000  0.0000
      2px      0.7369  0.7336  0.0000  0.0000  0.7336  0.0000  0.7369  0.0000  0.0000  0.0000
      2pz      0.5127  0.5093  0.0000  0.0000  0.5093  0.0000  0.5127  0.0000  0.0000  0.0000
      2py      0.7248  0.7310  0.0000  0.0000  0.7310  0.0000  0.7248  0.0000  0.0000  0.0000
      *s       0.5932  0.4985  0.2974  0.2980  0.4985  0.2827  0.5932  0.2827  0.2980  0.2974
      *px      0.3058  0.1885  0.0000  0.0000  0.1885  0.0000  0.3058  0.0000  0.0000  0.0000
      *pz      0.5048  0.4541  0.0000  0.0000  0.4541  0.0000  0.5048  0.0000  0.0000  0.0000
      *py      0.3137  0.2991  0.0000  0.0000  0.2991  0.0000  0.3137  0.0000  0.0000  0.0000
      *200     0.0305  0.0222  0.0000  0.0000  0.0222  0.0000  0.0305  0.0000  0.0000  0.0000
      *110     0.0113  0.0132  0.0000  0.0000  0.0132  0.0000  0.0113  0.0000  0.0000  0.0000
      *101     0.0044  0.0080  0.0000  0.0000  0.0080  0.0000  0.0044  0.0000  0.0000  0.0000
      *020     0.0316  0.0324  0.0000  0.0000  0.0324  0.0000  0.0316  0.0000  0.0000  0.0000
      *011     0.0032  0.0038  0.0000  0.0000  0.0038  0.0000  0.0032  0.0000  0.0000  0.0000
      *002    -0.0201 -0.0187  0.0000  0.0000 -0.0187  0.0000 -0.0201  0.0000  0.0000  0.0000
      Total    6.4086  6.1413  0.8211  0.8214  6.1413  0.8077  6.4086  0.8077  0.8214  0.8211

      N-E     -0.4086 -0.1413  0.1789  0.1786 -0.1413  0.1923 -0.4086  0.1923  0.1786  0.1789

      Total electronic charge=   30.000000

      Total            charge=   -0.000000
--


++    Molecular properties:
      ---------------------

      Charge (e):
                      =   -0.0000
      Dipole Moment (Debye):
      Origin of the operator (Ang)=    0.0000    0.0000    0.0000
                   X= -1.6812E-06               Y= -1.1437E-06               Z=  8.1031E-06           Total=  8.3543E-06
      Quadrupole Moment (Debye*Ang):
      Origin of the operator (Ang)=   -0.6880    0.2997   -0.0000
                  XX= -2.3297E+01              XY=  2.8317E-01              XZ=  8.3298E-02              YY= -2.2448E+01
                  YZ=  2.4871E-01              ZZ= -2.8810E+01
      In traceless form (Debye*Ang)
                  XX=  2.3316E+00              XY=  4.2475E-01              XZ=  1.2495E-01              YY=  3.6054E+00
                  YZ=  3.7306E-01              ZZ= -5.9370E+00
--


      Input file to MOLDEN was generated!

 ###############################################################################
 ###############################################################################
 ###                                                                         ###
 ###                                                                         ###
 ###    WARNING: RunFile label nBas                                          ###
 ###    was used       60 times                                              ###
 ###                                                                         ###
 ###                                                                         ###
 ###############################################################################
 ###############################################################################
--- Stop Module: scf at Tue May 14 15:12:06 2024 /rc=_RC_ALL_IS_WELL_ ---
*** files: trans-1,3-butadiene.scf.molden trans-1,3-butadiene.ScfOrb xmldump
    saved to directory /home/kenya/molcas_test/0514
--- Module scf spent 2 seconds ---

*** symbolic link created: INPORB -> trans-1,3-butadiene.ScfOrb
--- Start Module: slapaf at Tue May 14 15:12:06 2024 ---

()()()()()()()()()()()()()()()()()()()()()()()()()()()()()()()()()()()()()()()()()()()()()()()()()()

                                              &SLAPAF

                                   only a single process is used
                       available to each process: 2.0 GB of memory, 1 thread
                                             pid: 42298
()()()()()()()()()()()()()()()()()()()()()()()()()()()()()()()()()()()()()()()()()()()()()()()()()()

--- Stop Module: slapaf at Tue May 14 15:12:06 2024 /rc=_RC_INVOKED_OTHER_MODULE_ ---
*** files: xmldump
    saved to directory /home/kenya/molcas_test/0514

*** symbolic link created: INPORB -> trans-1,3-butadiene.ScfOrb
--- Start Module: alaska at Tue May 14 15:12:06 2024 ---

()()()()()()()()()()()()()()()()()()()()()()()()()()()()()()()()()()()()()()()()()()()()()()()()()()

                                              &ALASKA

                                   only a single process is used
                       available to each process: 2.0 GB of memory, 1 thread
                                             pid: 42301
()()()()()()()()()()()()()()()()()()()()()()()()()()()()()()()()()()()()()()()()()()()()()()()()()()


                     Threshold for contributions to the gradient: 1.000E-07


                    ********************************************
                    * Symmetry Adapted Cartesian Displacements *
                    ********************************************


           Irreducible representation : a  
           Basis function(s) of irrep: x, y, xy, Rz, z, xz, Ry, yz, Rx, I                                              

 Basis Label        Type   Center Phase
   1   C1           x         1     1
   2   C1           y         1     1
   3   C1           z         1     1
   4   C2           x         2     1
   5   C2           y         2     1
   6   C2           z         2     1
   7   H3           x         3     1
   8   H3           y         3     1
   9   H3           z         3     1
  10   H4           x         4     1
  11   H4           y         4     1
  12   H4           z         4     1
  13   C5           x         5     1
  14   C5           y         5     1
  15   C5           z         5     1
  16   H6           x         6     1
  17   H6           y         6     1
  18   H6           z         6     1
  19   C7           x         7     1
  20   C7           y         7     1
  21   C7           z         7     1
  22   H8           x         8     1
  23   H8           y         8     1
  24   H8           z         8     1
  25   H9           x         9     1
  26   H9           y         9     1
  27   H9           z         9     1
  28   H10          x        10     1
  29   H10          y        10     1
  30   H10          z        10     1

                     No automatic utilization of translational and rotational invariance of the energy is employed.

 Conventional ERI gradients!

 **************************************************
 *                                                *
 *              Molecular gradients               *
 *                                                *
 **************************************************

  Irreducible representation: a  
 ------------------------------------------------------------------------------------------
                              X                       Y                       Z
 ------------------------------------------------------------------------------------------
  C1               -3.59921218079950E-03    1.24751372465788E-02    4.33499668612780E-04
  C2                1.12095006101648E-02   -2.45423884297855E-02   -7.96278240151910E-04
  H3               -5.68840558130113E-03   -6.99781703124158E-03   -3.44388466150161E-04
  H4                4.15417623445763E-03    7.44699327441323E-03    3.41137346324738E-04
  C5               -1.12110187083840E-02    2.45412734202448E-02    7.94975278788274E-04
  H6               -7.20670647793265E-03   -6.66278223357919E-03   -3.50859481995147E-04
  C7                3.59355550346230E-03   -1.24692103282449E-02   -4.32933069158148E-04
  H8                7.20792748603394E-03    6.66272451852112E-03    3.50888515272207E-04
  H9               -4.15309470931569E-03   -7.45110217687239E-03   -3.39966613848969E-04
  H10               5.69327782370888E-03    6.99717173993875E-03    3.43925062308140E-04
 ------------------------------------------------------------------------------------------

--- Stop Module: alaska at Tue May 14 15:12:07 2024 /rc=_RC_ALL_IS_WELL_ ---
*** files: xmldump
    saved to directory /home/kenya/molcas_test/0514
--- Module alaska spent 1 second ---

*** symbolic link created: INPORB -> trans-1,3-butadiene.ScfOrb
--- Start Module: slapaf at Tue May 14 15:12:07 2024 ---

()()()()()()()()()()()()()()()()()()()()()()()()()()()()()()()()()()()()()()()()()()()()()()()()()()

                                              &SLAPAF

                                   only a single process is used
                       available to each process: 2.0 GB of memory, 1 thread
                                             pid: 42322
()()()()()()()()()()()()()()()()()()()()()()()()()()()()()()()()()()()()()()()()()()()()()()()()()()



++       Slapaf input parameters:
         ------------------------

 Maximum number of iterations:              2000
 Convergence test a la Schlegel.
 Convergence criterion on gradient/para.<=: 3.0E-04
 Convergence criterion on step/parameter<=: 3.0E-04
 Convergence criterion on energy change <=: 0.0E+00
 Parameters for step-restricted optimization
 Maximum step length (initial seed):       3.00E-01

 -RFO activated with parameters:
   Maximum number of data points used in RFO:      5
 Line search is performed


 -Optimization for minimum.
  Optimization method: RS-RFO.

 -Initial Hessian guessed by Hessian Model Function (HMF).
  HMF augmented with weak interactions.

 -Hessian update method: Broyden-Fletcher-Goldfarb-Shanno
  Maximum number of points in Hessian update:  5

 -Relaxation will be done on non-redundant internal coordinates, based on
  force constant weighted redundant internal coordinates.

--

 ******************************************
 * Statistics of the internal coordinates *
 ******************************************
 Translations and Rotations:         0
 Bonds                     :         9
 Angles                    :        12
 Torsions                  :        12
 Out-of-plane angles       :         6


**********************************************************************************************************************
*                                    Energy Statistics for Geometry Optimization                                     *
**********************************************************************************************************************
                       Energy     Grad      Grad              Step                 Estimated   Geom       Hessian     
Iter      Energy       Change     Norm      Max    Element    Max     Element     Final Energy Update Update   Index  
  1   -154.91715095  0.00000000 0.047918 -0.028056 nrc009   0.096488  nrc014     -154.91958701 RS-RFO  None      0    

       +----------------------------------+----------------------------------+
       +    Cartesian Displacements       +    Gradient in internals         +
       +  Value      Threshold Converged? +  Value      Threshold Converged? +
 +-----+----------------------------------+----------------------------------+
 + RMS + 6.1140E-02  1.2000E-03     No    + 1.2807E-02  3.0000E-04     No    +
 +-----+----------------------------------+----------------------------------+
 + Max + 8.3702E-02  1.8000E-03     No    + 2.8056E-02  4.5000E-04     No    +
 +-----+----------------------------------+----------------------------------+

 Convergence not reached yet!

*****************************************************************************************************************
*****************************************************************************************************************

++ Geometry section

********************************************************************************
  Geometrical information of the new structure
********************************************************************************


 *********************************************************
 * Nuclear coordinates for the next iteration / Bohr     *
 *********************************************************
  ATOM              X               Y               Z     
  C1              -4.559942        1.804573        0.004908
  C2              -2.638621        0.195401       -0.031828
  H3              -6.489438        1.159713       -0.045128
  H4              -4.267254        3.818677        0.086199
  C5               0.038273        0.937264        0.031786
  H6              -3.007737       -1.809243       -0.113775
  C7               1.959590       -0.671915       -0.004874
  H8               0.407401        2.941909        0.113658
  H9               1.666903       -2.686025       -0.086141
  H10              3.889094       -0.027071        0.045196


 *********************************************************
 * Nuclear coordinates for the next iteration / Angstrom *
 *********************************************************
  ATOM              X               Y               Z     
  C1              -2.413018        0.954939        0.002597
  C2              -1.396298        0.103402       -0.016843
  H3              -3.434063        0.613694       -0.023881
  H4              -2.258133        2.020757        0.045615
  C5               0.020253        0.495979        0.016820
  H6              -1.591626       -0.957410       -0.060207
  C7               1.036970       -0.355562       -0.002579
  H8               0.215587        1.556791        0.060145
  H9               0.882087       -1.421383       -0.045584
  H10              2.058020       -0.014325        0.023917


                    *************************************** 
                    *    InterNuclear Distances / Bohr    * 
                    *************************************** 

               1 C1            2 C2            3 H3            4 H4            5 C5    
    1 C1       0.000000
    2 C2       2.506444        0.000000
    3 H3       2.035019        3.969745        0.000000
    4 H4       2.036883        3.974230        3.467772        0.000000
    5 C5       4.679373        2.778519        6.531954        5.181029        0.000000
    6 H6       3.934856        2.039990        4.576206        5.770603        4.103982
    7 C7       6.974051        4.679370        8.645378        7.677714        2.506444
    8 H8       5.097044        4.103988        7.125154        4.756245        2.039990
    9 H9       7.677718        5.181032        9.017609        8.806535        3.974237
   10 H10      8.645389        6.531958       10.446556        9.017620        3.969753

               6 H6            7 C7            8 H8            9 H9           10 H10   
    6 H6       0.000000
    7 C7       5.097030        0.000000
    8 H8       5.855624        3.934853        0.000000
    9 H9       4.756234        2.036886        5.770607        0.000000
   10 H10      7.125144        2.035022        4.576212        3.467768        0.000000

                    ******************************************* 
                    *    InterNuclear Distances / Angstrom    * 
                    ******************************************* 

               1 C1            2 C2            3 H3            4 H4            5 C5    
    1 C1       0.000000
    2 C2       1.326353        0.000000
    3 H3       1.076886        2.100698        0.000000
    4 H4       1.077872        2.103072        1.835066        0.000000
    5 C5       2.476218        1.470329        3.456561        2.741683        0.000000
    6 H6       2.082236        1.079516        2.421624        3.053672        2.171734
    7 C7       3.690509        2.476216        4.574937        4.062871        1.326353
    8 H8       2.697240        2.171737        3.770469        2.516897        1.079516
    9 H9       4.062873        2.741684        4.771913        4.660218        2.103076
   10 H10      4.574943        3.456564        5.528080        4.771919        2.100703

               6 H6            7 C7            8 H8            9 H9           10 H10   
    6 H6       0.000000
    7 C7       2.697232        0.000000
    8 H8       3.098663        2.082234        0.000000
    9 H9       2.516891        1.077874        3.053674        0.000000
   10 H10      3.770464        1.076887        2.421627        1.835064        0.000000

                    ************************************** 
                    *    Valence Bond Angles / Degree    * 
                    ************************************** 
                          Atom centers                 Phi
                      2 C2       1 C1       3 H3       121.53
                      2 C2       1 C1       4 H4       121.69
                      3 H3       1 C1       4 H4       116.78
                      1 C1       2 C2       5 C5       124.52
                      1 C1       2 C2       6 H6       119.52
                      5 C5       2 C2       6 H6       115.95
                      2 C2       5 C5       7 C7       124.52
                      2 C2       5 C5       8 H8       115.95
                      7 C7       5 C5       8 H8       119.52
                      5 C5       7 C7       9 H9       121.69
                      5 C5       7 C7      10 H10      121.53
                      9 H9       7 C7      10 H10      116.78

           ***************************************************************
           *              Valence Dihedral Angles / Degree               *
           ***************************************************************
                    Atom centers                       Phi1     Phi2     Theta 
           3 H3       1 C1       2 C2       5 C5        121.53   124.52  -180.00
           3 H3       1 C1       2 C2       6 H6        121.53   119.52     0.00
           4 H4       1 C1       2 C2       5 C5        121.69   124.52     0.00
           4 H4       1 C1       2 C2       6 H6        121.69   119.52  -180.00
           1 C1       2 C2       5 C5       7 C7        124.52   124.52   180.00
           1 C1       2 C2       5 C5       8 H8        124.52   115.95    -0.00
           6 H6       2 C2       5 C5       7 C7        115.95   124.52    -0.00
           6 H6       2 C2       5 C5       8 H8        115.95   115.95   180.00
           2 C2       5 C5       7 C7       9 H9        124.52   121.69     0.00
           2 C2       5 C5       7 C7      10 H10       124.52   121.53   180.00
           8 H8       5 C5       7 C7       9 H9        119.52   121.69  -180.00
           8 H8       5 C5       7 C7      10 H10       119.52   121.53     0.00
--
--- Stop Module: slapaf at Tue May 14 15:12:07 2024 /rc=_RC_CONTINUE_LOOP_ ---
*** files: trans-1,3-butadiene.geo.molden trans-1,3-butadiene.structure trans-1,3-butadiene.Opt.xyz xmldump
    saved to directory /home/kenya/molcas_test/0514

>>> END DO

*** symbolic link created: INPORB -> trans-1,3-butadiene.ScfOrb
--- Start Module: seward at Tue May 14 15:12:07 2024 ---
--- Stop Module: seward at Tue May 14 15:12:09 2024 /rc=_RC_ALL_IS_WELL_ ---
*** files: xmldump
    saved to directory /home/kenya/molcas_test/0514
--- Module seward spent 1 second ---

*** symbolic link created: INPORB -> trans-1,3-butadiene.ScfOrb
--- Start Module: scf at Tue May 14 15:12:09 2024 ---
--- Stop Module: scf at Tue May 14 15:12:11 2024 /rc=_RC_ALL_IS_WELL_ ---
*** files: trans-1,3-butadiene.scf.molden trans-1,3-butadiene.ScfOrb xmldump
    saved to directory /home/kenya/molcas_test/0514
--- Module scf spent 1 second ---

*** symbolic link created: INPORB -> trans-1,3-butadiene.ScfOrb
--- Start Module: slapaf at Tue May 14 15:12:11 2024 ---
--- Stop Module: slapaf at Tue May 14 15:12:11 2024 /rc=_RC_INVOKED_OTHER_MODULE_ ---
*** files: xmldump
    saved to directory /home/kenya/molcas_test/0514

*** symbolic link created: INPORB -> trans-1,3-butadiene.ScfOrb
--- Start Module: alaska at Tue May 14 15:12:11 2024 ---
--- Stop Module: alaska at Tue May 14 15:12:12 2024 /rc=_RC_ALL_IS_WELL_ ---
*** files: xmldump
    saved to directory /home/kenya/molcas_test/0514
--- Module alaska spent 1 second ---

*** symbolic link created: INPORB -> trans-1,3-butadiene.ScfOrb
--- Start Module: slapaf at Tue May 14 15:12:12 2024 ---

**********************************************************************************************************************
*                                    Energy Statistics for Geometry Optimization                                     *
**********************************************************************************************************************
                       Energy     Grad      Grad              Step                 Estimated   Geom       Hessian     
Iter      Energy       Change     Norm      Max    Element    Max     Element     Final Energy Update Update   Index  
  1   -154.91715095  0.00000000 0.047918 -0.028056 nrc009   0.096488  nrc014     -154.91958701 RS-RFO  None      0    
  2   -154.91957413 -0.00242318 0.007352 -0.005583 nrc009  -0.010174  nrc009     -154.91964450 RS-RFO  BFGS      0    

       +----------------------------------+----------------------------------+
       +    Cartesian Displacements       +    Gradient in internals         +
       +  Value      Threshold Converged? +  Value      Threshold Converged? +
 +-----+----------------------------------+----------------------------------+
 + RMS + 1.0709E-02  1.2000E-03     No    + 2.2167E-03  3.0000E-04     No    +
 +-----+----------------------------------+----------------------------------+
 + Max + 1.3567E-02  1.8000E-03     No    + 5.5826E-03  4.5000E-04     No    +
 +-----+----------------------------------+----------------------------------+

 Convergence not reached yet!

*****************************************************************************************************************
*****************************************************************************************************************

++ Geometry section

********************************************************************************
  Geometrical information of the new structure
********************************************************************************


 *********************************************************
 * Nuclear coordinates for the next iteration / Bohr     *
 *********************************************************
  ATOM              X               Y               Z     
  C1              -4.548526        1.798371        0.004842
  C2              -2.634949        0.189997       -0.031954
  H3              -6.476990        1.161605       -0.045030
  H4              -4.256542        3.810352        0.086105
  C5               0.034603        0.942664        0.031911
  H6              -3.004728       -1.812453       -0.113789
  C7               1.948177       -0.665715       -0.004829
  H8               0.404385        2.945113        0.113737
  H9               1.656191       -2.677702       -0.085934
  H10              3.876646       -0.028948        0.044941


 *********************************************************
 * Nuclear coordinates for the next iteration / Angstrom *
 *********************************************************
  ATOM              X               Y               Z     
  C1              -2.406976        0.951657        0.002562
  C2              -1.394355        0.100542       -0.016909
  H3              -3.427476        0.614695       -0.023829
  H4              -2.252465        2.016351        0.045565
  C5               0.018311        0.498836        0.016887
  H6              -1.590034       -0.959109       -0.060215
  C7               1.030931       -0.352281       -0.002555
  H8               0.213992        1.558487        0.060187
  H9               0.876419       -1.416979       -0.045474
  H10              2.051433       -0.015319        0.023782

--
--- Stop Module: slapaf at Tue May 14 15:12:12 2024 /rc=_RC_CONTINUE_LOOP_ ---
*** files: trans-1,3-butadiene.geo.molden trans-1,3-butadiene.structure trans-1,3-butadiene.Opt.xyz xmldump
    saved to directory /home/kenya/molcas_test/0514

>>> END DO

*** symbolic link created: INPORB -> trans-1,3-butadiene.ScfOrb
--- Start Module: seward at Tue May 14 15:12:12 2024 ---
--- Stop Module: seward at Tue May 14 15:12:14 2024 /rc=_RC_ALL_IS_WELL_ ---
*** files: xmldump
    saved to directory /home/kenya/molcas_test/0514
--- Module seward spent 1 second ---

*** symbolic link created: INPORB -> trans-1,3-butadiene.ScfOrb
--- Start Module: scf at Tue May 14 15:12:14 2024 ---
--- Stop Module: scf at Tue May 14 15:12:15 2024 /rc=_RC_ALL_IS_WELL_ ---
*** files: trans-1,3-butadiene.scf.molden trans-1,3-butadiene.ScfOrb xmldump
    saved to directory /home/kenya/molcas_test/0514
--- Module scf spent 1 second ---

*** symbolic link created: INPORB -> trans-1,3-butadiene.ScfOrb
--- Start Module: slapaf at Tue May 14 15:12:15 2024 ---
--- Stop Module: slapaf at Tue May 14 15:12:15 2024 /rc=_RC_INVOKED_OTHER_MODULE_ ---
*** files: xmldump
    saved to directory /home/kenya/molcas_test/0514

*** symbolic link created: INPORB -> trans-1,3-butadiene.ScfOrb
--- Start Module: alaska at Tue May 14 15:12:15 2024 ---
--- Stop Module: alaska at Tue May 14 15:12:17 2024 /rc=_RC_ALL_IS_WELL_ ---
*** files: xmldump
    saved to directory /home/kenya/molcas_test/0514
--- Module alaska spent 1 second ---

*** symbolic link created: INPORB -> trans-1,3-butadiene.ScfOrb
--- Start Module: slapaf at Tue May 14 15:12:17 2024 ---

**********************************************************************************************************************
*                                    Energy Statistics for Geometry Optimization                                     *
**********************************************************************************************************************
                       Energy     Grad      Grad              Step                 Estimated   Geom       Hessian     
Iter      Energy       Change     Norm      Max    Element    Max     Element     Final Energy Update Update   Index  
  1   -154.91715095  0.00000000 0.047918 -0.028056 nrc009   0.096488  nrc014     -154.91958701 RS-RFO  None      0    
  2   -154.91957413 -0.00242318 0.007352 -0.005583 nrc009  -0.010174  nrc009     -154.91964450 RS-RFO  BFGS      0    
  3   -154.91965269 -0.00007856 0.000790 -0.000723 nrc009  -0.001553  nrc018     -154.91965395 RS-RFO  BFGS      0    

       +----------------------------------+----------------------------------+
       +    Cartesian Displacements       +    Gradient in internals         +
       +  Value      Threshold Converged? +  Value      Threshold Converged? +
 +-----+----------------------------------+----------------------------------+
 + RMS + 1.7131E-03  1.2000E-03     No    + 2.1121E-04  3.0000E-04     Yes   +
 +-----+----------------------------------+----------------------------------+
 + Max + 2.8249E-03  1.8000E-03     No    + 7.2309E-04  4.5000E-04     No    +
 +-----+----------------------------------+----------------------------------+

 Convergence not reached yet!

*****************************************************************************************************************
*****************************************************************************************************************

++ Geometry section

********************************************************************************
  Geometrical information of the new structure
********************************************************************************


 *********************************************************
 * Nuclear coordinates for the next iteration / Bohr     *
 *********************************************************
  ATOM              X               Y               Z     
  C1              -4.547132        1.797232        0.004699
  C2              -2.634312        0.189152       -0.032076
  H3              -6.475544        1.161589       -0.044479
  H4              -4.254166        3.808889        0.085660
  C5               0.033965        0.943504        0.032092
  H6              -3.004541       -1.812673       -0.114023
  C7               1.946785       -0.664576       -0.004679
  H8               0.404198        2.945335        0.113890
  H9               1.653824       -2.676219       -0.086020
  H10              3.875192       -0.028951        0.044937


 *********************************************************
 * Nuclear coordinates for the next iteration / Angstrom *
 *********************************************************
  ATOM              X               Y               Z     
  C1              -2.406239        0.951054        0.002487
  C2              -1.394018        0.100095       -0.016974
  H3              -3.426710        0.614686       -0.023537
  H4              -2.251208        2.015577        0.045329
  C5               0.017974        0.499281        0.016982
  H6              -1.589935       -0.959225       -0.060339
  C7               1.030194       -0.351678       -0.002476
  H8               0.213892        1.558604        0.060268
  H9               0.875166       -1.416194       -0.045520
  H10              2.050663       -0.015320        0.023780

--
--- Stop Module: slapaf at Tue May 14 15:12:17 2024 /rc=_RC_CONTINUE_LOOP_ ---
*** files: trans-1,3-butadiene.geo.molden trans-1,3-butadiene.structure trans-1,3-butadiene.Opt.xyz xmldump
    saved to directory /home/kenya/molcas_test/0514

>>> END DO

*** symbolic link created: INPORB -> trans-1,3-butadiene.ScfOrb
--- Start Module: seward at Tue May 14 15:12:17 2024 ---
--- Stop Module: seward at Tue May 14 15:12:18 2024 /rc=_RC_ALL_IS_WELL_ ---
*** files: xmldump
    saved to directory /home/kenya/molcas_test/0514
--- Module seward spent 1 second ---

*** symbolic link created: INPORB -> trans-1,3-butadiene.ScfOrb
--- Start Module: scf at Tue May 14 15:12:18 2024 ---
--- Stop Module: scf at Tue May 14 15:12:20 2024 /rc=_RC_ALL_IS_WELL_ ---
*** files: trans-1,3-butadiene.scf.molden trans-1,3-butadiene.ScfOrb xmldump
    saved to directory /home/kenya/molcas_test/0514
--- Module scf spent 1 second ---

*** symbolic link created: INPORB -> trans-1,3-butadiene.ScfOrb
--- Start Module: slapaf at Tue May 14 15:12:20 2024 ---
--- Stop Module: slapaf at Tue May 14 15:12:20 2024 /rc=_RC_INVOKED_OTHER_MODULE_ ---
*** files: xmldump
    saved to directory /home/kenya/molcas_test/0514

*** symbolic link created: INPORB -> trans-1,3-butadiene.ScfOrb
--- Start Module: alaska at Tue May 14 15:12:20 2024 ---
--- Stop Module: alaska at Tue May 14 15:12:21 2024 /rc=_RC_ALL_IS_WELL_ ---
*** files: xmldump
    saved to directory /home/kenya/molcas_test/0514
--- Module alaska spent 1 second ---

*** symbolic link created: INPORB -> trans-1,3-butadiene.ScfOrb
--- Start Module: slapaf at Tue May 14 15:12:21 2024 ---

**********************************************************************************************************************
*                                    Energy Statistics for Geometry Optimization                                     *
**********************************************************************************************************************
                       Energy     Grad      Grad              Step                 Estimated   Geom       Hessian     
Iter      Energy       Change     Norm      Max    Element    Max     Element     Final Energy Update Update   Index  
  1   -154.91715095  0.00000000 0.047918 -0.028056 nrc009   0.096488  nrc014     -154.91958701 RS-RFO  None      0    
  2   -154.91957413 -0.00242318 0.007352 -0.005583 nrc009  -0.010174  nrc009     -154.91964450 RS-RFO  BFGS      0    
  3   -154.91965269 -0.00007856 0.000790 -0.000723 nrc009  -0.001553  nrc018     -154.91965395 RS-RFO  BFGS      0    
  4   -154.91965400 -0.00000132 0.000196 -0.000070 nrc001   0.002258  nrc022     -154.91965407 RS-RFO  BFGS      0    

[...]
       72 H10    *s         0.0003    0.0001    0.0015    0.0014    0.0044    0.0197    0.0500   -0.0212    0.1086    0.0513

          Orbital           11        12        13        14        15        16        17        18        19        20    
          Energy           -0.5571   -0.5416   -0.4875   -0.4399   -0.3215    0.1335    0.2613    0.2637    0.2710    0.2786
          Occ. No.          2.0000    2.0000    2.0000    2.0000    2.0000    0.0000    0.0000    0.0000    0.0000    0.0000

        1 C1     1s         0.0211    0.0055    0.0024    0.0000    0.0000    0.0000   -0.0000   -0.0262    0.0518    0.0873
        2 C1     2s        -0.0456   -0.0126   -0.0052   -0.0000   -0.0000   -0.0000    0.0000    0.0243   -0.0420   -0.1030
        3 C1     *s        -0.0230    0.0013    0.0084   -0.0000   -0.0000   -0.0000    0.0008    0.4460   -1.0587   -1.5152
        4 C1     2px       -0.2692    0.1004    0.1292   -0.0029    0.0040   -0.0038    0.0022    0.0626    0.1315    0.1006
        5 C1     *px       -0.1017    0.0721    0.0955   -0.0022    0.0036   -0.0067    0.0076    0.1470    0.4082    0.5347
        6 C1     2py        0.1295    0.2691    0.1337   -0.0086    0.0117   -0.0112    0.0065    0.1478   -0.0611   -0.0231
        7 C1     *py        0.0470    0.1460    0.0806   -0.0064    0.0106   -0.0197    0.0226    0.4749   -0.3556   -0.0537
        8 C1     2pz        0.0015    0.0117    0.0069    0.2243   -0.3049    0.2904   -0.1627    0.0068   -0.0006    0.0004
        9 C1     *pz        0.0005    0.0066    0.0044    0.1663   -0.2744    0.5135   -0.5677    0.0212   -0.0083    0.0049
       10 C1     *200       0.0038   -0.0117   -0.0129   -0.0002    0.0002    0.0002   -0.0002    0.0050    0.0048    0.0044
       11 C1     *110       0.0156    0.0003   -0.0046   -0.0004    0.0003    0.0004   -0.0003    0.0014    0.0078    0.0037
       12 C1     *101       0.0007   -0.0003   -0.0005    0.0144   -0.0129   -0.0126    0.0136    0.0002    0.0003    0.0002
       13 C1     *020       0.0019    0.0134    0.0128    0.0004   -0.0004   -0.0003    0.0008   -0.0051   -0.0028    0.0004
       14 C1     *011       0.0004    0.0010    0.0009   -0.0110    0.0116    0.0070   -0.0203   -0.0002   -0.0003   -0.0001
       15 C1     *002      -0.0002    0.0000    0.0001   -0.0002    0.0003    0.0001   -0.0006   -0.0021    0.0029    0.0025
       16 C2     1s         0.0024   -0.0180    0.0158   -0.0000   -0.0000   -0.0000    0.0001    0.0364    0.0394    0.0131
       17 C2     2s        -0.0058    0.0358   -0.0360    0.0000    0.0000    0.0000   -0.0000   -0.0316   -0.0385    0.0147
       18 C2     *s         0.0215    0.0431   -0.0463    0.0000    0.0000    0.0000   -0.0009   -0.5890   -0.8816   -0.6452
       19 C2     2px        0.2118    0.0543   -0.2208   -0.0038    0.0031    0.0029   -0.0039    0.0594    0.0204   -0.0147
       20 C2     *px        0.0770   -0.0115   -0.0984   -0.0027    0.0026    0.0048   -0.0102    0.1416    0.1115   -0.5261
       21 C2     2py       -0.2189   -0.1473   -0.1976   -0.0113    0.0091    0.0085   -0.0116    0.1583    0.1389    0.0588
       22 C2     *py       -0.0938   -0.0929   -0.1399   -0.0079    0.0078    0.0142   -0.0300    0.4450    0.6741    0.0592
       23 C2     2pz       -0.0056   -0.0050   -0.0105    0.2941   -0.2354   -0.2222    0.3081    0.0063    0.0056    0.0021
       24 C2     *pz       -0.0026   -0.0037   -0.0067    0.2051   -0.2018   -0.3694    0.7998    0.0176    0.0274   -0.0045
       25 C2     *200      -0.0014   -0.0071   -0.0133    0.0000   -0.0003    0.0003    0.0001   -0.0073    0.0007   -0.0070
       26 C2     *110       0.0218    0.0013   -0.0004   -0.0001   -0.0008    0.0009    0.0006    0.0038   -0.0078    0.0152
       27 C2     *101       0.0008   -0.0001   -0.0004   -0.0013    0.0239   -0.0264   -0.0093   -0.0001   -0.0003    0.0004
       28 C2     *020       0.0061    0.0103    0.0159   -0.0005    0.0005   -0.0003    0.0008    0.0082    0.0014    0.0053
       29 C2     *011       0.0008    0.0009    0.0012    0.0122   -0.0126    0.0066   -0.0193    0.0005   -0.0001    0.0005
       30 C2     *002      -0.0006   -0.0008    0.0000    0.0005   -0.0002   -0.0001   -0.0009    0.0031    0.0011    0.0016
       31 H3     1s         0.1193   -0.1276   -0.1276    0.0000    0.0000   -0.0000    0.0000    0.0092    0.0306    0.0188
       32 H3     *s         0.1035   -0.0937   -0.1056    0.0000    0.0000   -0.0000    0.0004    0.2716    0.9266    1.2345
       33 H4     1s         0.0409    0.1823    0.1180   -0.0000    0.0000    0.0000   -0.0000   -0.0158   -0.0130    0.0137
       34 H4     *s         0.0422    0.1385    0.1117   -0.0000   -0.0000   -0.0000   -0.0016   -0.9559    0.6513    0.6966
       35 C5     1s         0.0024    0.0180    0.0158   -0.0000    0.0000   -0.0000   -0.0001   -0.0364    0.0394   -0.0131
       36 C5     2s        -0.0058   -0.0358   -0.0360    0.0000    0.0000    0.0000    0.0001    0.0316   -0.0385   -0.0147
       37 C5     *s         0.0215   -0.0431   -0.0463    0.0000   -0.0000    0.0000    0.0009    0.5890   -0.8816    0.6452
       38 C5     2px       -0.2118    0.0543    0.2208   -0.0039   -0.0031    0.0029    0.0041    0.0594   -0.0204   -0.0147
       39 C5     *px       -0.0770   -0.0115    0.0984   -0.0027   -0.0026    0.0048    0.0107    0.1415   -0.1115   -0.5261
       40 C5     2py        0.2189   -0.1473    0.1976   -0.0113   -0.0091    0.0085    0.0121    0.1583   -0.1389    0.0589
       41 C5     *py        0.0938   -0.0929    0.1399   -0.0079   -0.0078    0.0142    0.0315    0.4449   -0.6741    0.0592
       42 C5     2pz        0.0056   -0.0050    0.0105    0.2941    0.2354   -0.2222   -0.3081    0.0074   -0.0056    0.0020
       43 C5     *pz        0.0026   -0.0037    0.0067    0.2051    0.2018   -0.3694   -0.7997    0.0204   -0.0274   -0.0047
       44 C5     *200      -0.0014    0.0071   -0.0133   -0.0000   -0.0003   -0.0003    0.0001    0.0073    0.0007    0.0070
       45 C5     *110       0.0218   -0.0013   -0.0004    0.0001   -0.0008   -0.0009    0.0006   -0.0038   -0.0078   -0.0152
       46 C5     *101       0.0008    0.0001   -0.0004    0.0013    0.0239    0.0264   -0.0093    0.0001   -0.0003   -0.0004
       47 C5     *020       0.0061   -0.0103    0.0159    0.0005    0.0005    0.0003    0.0007   -0.0082    0.0014   -0.0053
       48 C5     *011       0.0008   -0.0009    0.0012   -0.0122   -0.0126   -0.0066   -0.0193   -0.0004   -0.0001   -0.0005
       49 C5     *002      -0.0006    0.0008    0.0000   -0.0005   -0.0002    0.0001   -0.0009   -0.0031    0.0011   -0.0016
       50 H6     1s         0.1173    0.1106    0.1617   -0.0000    0.0000    0.0000    0.0001    0.0380   -0.0220    0.0329
       51 H6     *s         0.0980    0.0738    0.1442   -0.0000   -0.0000   -0.0000    0.0018    1.0962    1.0226    0.3278
       52 C7     1s         0.0211   -0.0055    0.0024    0.0000    0.0000    0.0000    0.0001    0.0262    0.0518   -0.0873
       53 C7     2s        -0.0456    0.0126   -0.0052   -0.0000   -0.0000   -0.0000   -0.0001   -0.0243   -0.0420    0.1030
       54 C7     *s        -0.0230   -0.0013    0.0084   -0.0000   -0.0000   -0.0000   -0.0010   -0.4460   -1.0587    1.5152
       55 C7     2px        0.2692    0.1004   -0.1292   -0.0029   -0.0040   -0.0038   -0.0020    0.0626   -0.1315    0.1006
       56 C7     *px        0.1017    0.0721   -0.0955   -0.0022   -0.0036   -0.0067   -0.0072    0.1470   -0.4082    0.5347
       57 C7     2py       -0.1295    0.2691   -0.1337   -0.0086   -0.0117   -0.0111   -0.0060    0.1479    0.0611   -0.0231
       58 C7     *py       -0.0470    0.1460   -0.0806   -0.0064   -0.0105   -0.0197   -0.0209    0.4750    0.3556   -0.0537
       59 C7     2pz       -0.0015    0.0116   -0.0068    0.2243    0.3049    0.2904    0.1628    0.0062    0.0006    0.0005
       60 C7     *pz       -0.0005    0.0065   -0.0043    0.1663    0.2744    0.5135    0.5678    0.0191    0.0083    0.0050
       61 C7     *200       0.0038    0.0117   -0.0129    0.0002    0.0002   -0.0002   -0.0002   -0.0050    0.0048   -0.0044
       62 C7     *110       0.0156   -0.0003   -0.0046    0.0004    0.0003   -0.0004   -0.0003   -0.0014    0.0078   -0.0037
       63 C7     *101       0.0007    0.0003   -0.0005   -0.0144   -0.0129    0.0126    0.0136   -0.0003    0.0003   -0.0002
       64 C7     *020       0.0019   -0.0134    0.0128   -0.0004   -0.0004    0.0003    0.0008    0.0051   -0.0028   -0.0004
       65 C7     *011       0.0004   -0.0010    0.0009    0.0110    0.0116   -0.0070   -0.0203    0.0002   -0.0003    0.0001
       66 C7     *002      -0.0002   -0.0000    0.0001    0.0002    0.0003   -0.0001   -0.0006    0.0021    0.0029   -0.0025
       67 H8     1s         0.1173   -0.1106    0.1617   -0.0000   -0.0000   -0.0000   -0.0001   -0.0380   -0.0220   -0.0329
       68 H8     *s         0.0980   -0.0738    0.1442   -0.0000   -0.0000   -0.0000   -0.0018   -1.0962    1.0226   -0.3278
       69 H9     1s         0.0409   -0.1823    0.1180   -0.0000   -0.0000    0.0000    0.0000    0.0158   -0.0130   -0.0137
       70 H9     *s         0.0422   -0.1385    0.1117   -0.0000   -0.0000    0.0000    0.0018    0.9559    0.6513   -0.6966
       71 H10    1s         0.1193    0.1276   -0.1276    0.0000    0.0000   -0.0000   -0.0000   -0.0092    0.0306   -0.0188
       72 H10    *s         0.1035    0.0937   -0.1056    0.0000    0.0000   -0.0000   -0.0003   -0.2716    0.9266   -1.2345

          Orbital           21        22        23        24        25        26    
          Energy            0.3333    0.3503    0.3631    0.4935    0.4969    0.5818
          Occ. No.          0.0000    0.0000    0.0000    0.0000    0.0000    0.0000

        1 C1     1s         0.0592    0.0134   -0.0483    0.0380    0.0569    0.0353
        2 C1     2s        -0.0527   -0.0177    0.0386    0.0771    0.0183   -0.0851
        3 C1     *s        -1.1507   -0.0861    0.9042   -2.9851   -1.4221   -1.5747
        4 C1     2px       -0.0617    0.1030   -0.1579    0.0438    0.0124   -0.1411
        5 C1     *px       -0.4990    0.6186   -0.6890   -1.9252   -1.7960   -0.8491
        6 C1     2py       -0.1764    0.1187   -0.1000    0.0452   -0.1013    0.1028
        7 C1     *py       -0.6422    0.7870   -0.8860    1.4409    0.0785    1.8881
        8 C1     2pz       -0.0076    0.0059   -0.0059    0.0023   -0.0037    0.0021
        9 C1     *pz       -0.0312    0.0384   -0.0431    0.0302   -0.0205    0.0615
       10 C1     *200      -0.0050    0.0057    0.0047   -0.0138    0.0112   -0.0066
       11 C1     *110      -0.0056   -0.0048    0.0055   -0.0147   -0.0178   -0.0115
       12 C1     *101      -0.0004   -0.0001    0.0004   -0.0012   -0.0006   -0.0005
       13 C1     *020       0.0063   -0.0061   -0.0052   -0.0014   -0.0154   -0.0004
       14 C1     *011       0.0002   -0.0007   -0.0002   -0.0010   -0.0019    0.0001
       15 C1     *002       0.0029    0.0017   -0.0022    0.0088    0.0062   -0.0031
       16 C2     1s        -0.0426   -0.0812    0.0414   -0.0428   -0.0922   -0.0024
       17 C2     2s         0.0572    0.1133   -0.0231    0.0213    0.0203   -0.0042
       18 C2     *s         0.7111    1.1674   -1.2531    2.4831    3.4873    0.3170
       19 C2     2px       -0.0357    0.1076    0.0888   -0.0291    0.0105   -0.2017
       20 C2     *px       -0.1442    0.1119    0.4866   -1.7202    1.2591   -3.1260
       21 C2     2py       -0.0536   -0.0645    0.0915    0.1427    0.2081   -0.0415
       22 C2     *py        0.0245   -0.5631    0.8236    2.5524    1.4990   -0.0154
       23 C2     2pz       -0.0026   -0.0011    0.0047    0.0051    0.0081   -0.0043
       24 C2     *pz       -0.0010   -0.0202    0.0381    0.0757    0.0742   -0.0415
       25 C2     *200       0.0070   -0.0131    0.0037    0.0134    0.0077   -0.0037
       26 C2     *110       0.0075   -0.0107    0.0004   -0.0132   -0.0095    0.0347
       27 C2     *101       0.0005   -0.0008    0.0000   -0.0001   -0.0000    0.0013
       28 C2     *020      -0.0086    0.0083   -0.0062   -0.0001    0.0072    0.0041
       29 C2     *011      -0.0005    0.0004   -0.0007    0.0001    0.0008    0.0009
       30 C2     *002      -0.0005    0.0012    0.0033   -0.0033   -0.0054   -0.0015
       31 H3     1s        -0.0171    0.0296    0.0304   -0.1076    0.0138   -0.0822
       32 H3     *s        -0.3236    1.0895   -1.4761   -0.3033   -0.7811   -0.0376
       33 H4     1s         0.0354   -0.0319   -0.0376   -0.0291   -0.1110   -0.0506
       34 H4     *s         1.5123   -0.9180    0.5345   -0.3038    0.7229   -1.1430
       35 C5     1s        -0.0426    0.0812    0.0414   -0.0428    0.0922    0.0024
       36 C5     2s         0.0572   -0.1133   -0.0231    0.0213   -0.0203    0.0042
       37 C5     *s         0.7111   -1.1674   -1.2531    2.4831   -3.4873   -0.3170
       38 C5     2px        0.0357    0.1076   -0.0888    0.0291    0.0105   -0.2017
       39 C5     *px        0.1442    0.1119   -0.4866    1.7202    1.2591   -3.1260
       40 C5     2py        0.0536   -0.0645   -0.0915   -0.1427    0.2081   -0.0415
       41 C5     *py       -0.0245   -0.5631   -0.8236   -2.5524    1.4990   -0.0154
       42 C5     2pz        0.0026   -0.0011   -0.0047   -0.0051    0.0081   -0.0042
       43 C5     *pz        0.0011   -0.0201   -0.0380   -0.0757    0.0741   -0.0415
       44 C5     *200       0.0070    0.0131    0.0037    0.0134   -0.0077    0.0037
       45 C5     *110       0.0075    0.0107    0.0004   -0.0132    0.0095   -0.0347
       46 C5     *101       0.0005    0.0008    0.0000   -0.0001    0.0000   -0.0013
       47 C5     *020      -0.0086   -0.0083   -0.0062   -0.0001   -0.0072   -0.0041
       48 C5     *011      -0.0005   -0.0004   -0.0007    0.0001   -0.0008   -0.0009
       49 C5     *002      -0.0005   -0.0012    0.0033   -0.0033    0.0054    0.0015
       50 H6     1s        -0.0493    0.0037   -0.0204   -0.0082    0.0019    0.0565
       51 H6     *s        -0.5753   -1.1054    1.2646    1.3222    0.6484   -0.6193
       52 C7     1s         0.0592   -0.0134   -0.0483    0.0380   -0.0569   -0.0353
       53 C7     2s        -0.0527    0.0177    0.0386    0.0771   -0.0183    0.0851
       54 C7     *s        -1.1507    0.0861    0.9042   -2.9851    1.4221    1.5747
       55 C7     2px        0.0617    0.1030    0.1579   -0.0438    0.0124   -0.1411
       56 C7     *px        0.4990    0.6186    0.6890    1.9252   -1.7960   -0.8491
       57 C7     2py        0.1764    0.1187    0.1000   -0.0452   -0.1014    0.1028
       58 C7     *py        0.6422    0.7870    0.8860   -1.4409    0.0785    1.8881
       59 C7     2pz        0.0076    0.0059    0.0059   -0.0023   -0.0037    0.0021
       60 C7     *pz        0.0311    0.0383    0.0430   -0.0302   -0.0205    0.0614
       61 C7     *200      -0.0050   -0.0057    0.0047   -0.0138   -0.0112    0.0066
       62 C7     *110      -0.0056    0.0048    0.0055   -0.0147    0.0178    0.0115
       63 C7     *101      -0.0004    0.0001    0.0004   -0.0012    0.0006    0.0005
       64 C7     *020       0.0063    0.0061   -0.0052   -0.0014    0.0154    0.0004
       65 C7     *011       0.0002    0.0007   -0.0002   -0.0010    0.0019   -0.0001
       66 C7     *002       0.0029   -0.0017   -0.0022    0.0088   -0.0062    0.0031
       67 H8     1s        -0.0493   -0.0037   -0.0204   -0.0082   -0.0019   -0.0565
       68 H8     *s        -0.5753    1.1054    1.2646    1.3222   -0.6484    0.6193
       69 H9     1s         0.0354    0.0319   -0.0376   -0.0291    0.1110    0.0506
       70 H9     *s         1.5123    0.9180    0.5345   -0.3038   -0.7229    1.1430
       71 H10    1s        -0.0171   -0.0296    0.0304   -0.1076   -0.0138    0.0822
       72 H10    *s        -0.3236   -1.0895   -1.4761   -0.3033    0.7811    0.0376
--


++    Molecular charges:
      ------------------

      Mulliken charges per centre and basis function type
      ---------------------------------------------------

                C1      C2      H3      H4      C5      H6      C7      H8      H9      H10   
      1s       1.9965  1.9966  0.5275  0.5275  1.9966  0.5302  1.9965  0.5302  0.5275  0.5275
      2s       0.6608  0.6715  0.0000  0.0000  0.6715  0.0000  0.6608  0.0000  0.0000  0.0000
      2px      0.7444  0.7392  0.0000  0.0000  0.7392  0.0000  0.7444  0.0000  0.0000  0.0000
      2pz      0.5161  0.5131  0.0000  0.0000  0.5131  0.0000  0.5161  0.0000  0.0000  0.0000
      2py      0.7301  0.7362  0.0000  0.0000  0.7362  0.0000  0.7301  0.0000  0.0000  0.0000
      *s       0.5851  0.4877  0.2906  0.2952  0.4877  0.2826  0.5851  0.2826  0.2952  0.2906
      *px      0.3016  0.1834  0.0000  0.0000  0.1834  0.0000  0.3016  0.0000  0.0000  0.0000
      *pz      0.5004  0.4510  0.0000  0.0000  0.4510  0.0000  0.5004  0.0000  0.0000  0.0000
      *py      0.3125  0.2975  0.0000  0.0000  0.2975  0.0000  0.3125  0.0000  0.0000  0.0000
      *200     0.0317  0.0235  0.0000  0.0000  0.0235  0.0000  0.0317  0.0000  0.0000  0.0000
      *110     0.0108  0.0124  0.0000  0.0000  0.0124  0.0000  0.0108  0.0000  0.0000  0.0000
      *101     0.0046  0.0082  0.0000  0.0000  0.0082  0.0000  0.0046  0.0000  0.0000  0.0000
      *020     0.0315  0.0322  0.0000  0.0000  0.0322  0.0000  0.0315  0.0000  0.0000  0.0000
      *011     0.0032  0.0038  0.0000  0.0000  0.0038  0.0000  0.0032  0.0000  0.0000  0.0000
      *002    -0.0203 -0.0188  0.0000  0.0000 -0.0188  0.0000 -0.0203  0.0000  0.0000  0.0000
      Total    6.4089  6.1374  0.8181  0.8228  6.1374  0.8128  6.4089  0.8128  0.8228  0.8181

      N-E     -0.4089 -0.1374  0.1819  0.1772 -0.1374  0.1872 -0.4089  0.1872  0.1772  0.1819

      Total electronic charge=   30.000000

      Total            charge=   -0.000000
--


++    Molecular properties:
      ---------------------

      Charge (e):
                      =   -0.0000
      Dipole Moment (Debye):
      Origin of the operator (Ang)=    0.0000    0.0000    0.0000
                   X= -8.9144E-07               Y= -2.6149E-06               Z=  6.7981E-05           Total=  6.8037E-05
      Quadrupole Moment (Debye*Ang):
      Origin of the operator (Ang)=   -0.6880    0.2997   -0.0000
                  XX= -2.2959E+01              XY= -8.1913E-02              XZ=  7.1343E-02              YY= -2.2611E+01
                  YZ=  2.3073E-01              ZZ= -2.8631E+01
      In traceless form (Debye*Ang)
                  XX=  2.6620E+00              XY= -1.2287E-01              XZ=  1.0701E-01              YY=  3.1842E+00
                  YZ=  3.4610E-01              ZZ= -5.8462E+00
--


      Input file to MOLDEN was generated!

 ###############################################################################
 ###############################################################################
 ###                                                                         ###
 ###                                                                         ###
 ###    WARNING: RunFile label nBas                                          ###
 ###    was used       63 times                                              ###
 ###                                                                         ###
 ###                                                                         ###
 ###############################################################################
 ###############################################################################
--- Stop Module: last_energy at Tue May 14 15:12:29 2024 /rc=_RC_ALL_IS_WELL_ ---
*** files: trans-1,3-butadiene.scf.molden trans-1,3-butadiene.ScfOrb xmldump
    saved to directory /home/kenya/molcas_test/0514
--- Module last_energy spent 2 seconds ---

>>> END DO

.##################.
.# Happy landing! #.
.##################.

    Timing: Wall=27.15 User=24.19 System=2.72
