[Molden Format]
[N_Atoms]
                    6
[Atoms] (AU)
C1          1      6          -0.05066812      0.02772744     -1.21568957
C2          2      6          -0.33825538     -0.08589895      1.47384681
H3          3      1           1.15594564      1.39235215     -2.23466997
H4          4      1          -0.93263700     -1.40932247     -2.43458706
H5          5      1           1.82919970     -0.15253230      1.78841972
H6          6      1          -0.47264120      1.84538656      2.33853037
[5D]
[7F]
[9G]
[Charge] (Mulliken)
  0.15688026991180504     
 -0.45548911314994900     
   8.1486290679684825E-002
  0.10621387142955696     
   6.3463065001045149E-002
   4.7445616127423262E-002
[GTO] (AU)
   1
   s   9
  6.665000000E+03  6.920001793E-04
  1.000000000E+03  5.329001381E-03
  2.280000000E+02  2.707700701E-02
  6.471000000E+01  1.017180264E-01
  2.106000000E+01  2.747400712E-01
  7.495000000E+00  4.485641162E-01
  2.797000000E+00  2.850740738E-01
  5.215000000E-01  1.520400394E-02
  1.596000000E-01 -3.191000827E-03
   s   9
  6.665000000E+03 -1.460000642E-04
  1.000000000E+03 -1.154000508E-03
  2.280000000E+02 -5.725002519E-03
  6.471000000E+01 -2.331201026E-02
  2.106000000E+01 -6.395502813E-02
  7.495000000E+00 -1.499810660E-01
  2.797000000E+00 -1.272620560E-01
  5.215000000E-01  5.445292395E-01
  1.596000000E-01  5.804962554E-01
   s   1
  1.596000000E-01  1.000000000E+00
   p   4
  9.439000000E+00  3.810902127E-02
  2.002000000E+00  2.094801169E-01
  5.456000000E-01  5.085572839E-01
  1.517000000E-01  4.688422617E-01
   p   1
  1.517000000E-01  1.000000000E+00
   d   1
  5.500000000E-01  1.000000000E+00
 
   2
   s   9
  6.665000000E+03  6.920001793E-04
  1.000000000E+03  5.329001381E-03
  2.280000000E+02  2.707700701E-02
  6.471000000E+01  1.017180264E-01
  2.106000000E+01  2.747400712E-01
  7.495000000E+00  4.485641162E-01
  2.797000000E+00  2.850740738E-01
  5.215000000E-01  1.520400394E-02
  1.596000000E-01 -3.191000827E-03
   s   9
  6.665000000E+03 -1.460000642E-04
  1.000000000E+03 -1.154000508E-03
  2.280000000E+02 -5.725002519E-03
  6.471000000E+01 -2.331201026E-02
  2.106000000E+01 -6.395502813E-02
  7.495000000E+00 -1.499810660E-01
  2.797000000E+00 -1.272620560E-01
  5.215000000E-01  5.445292395E-01
  1.596000000E-01  5.804962554E-01
   s   1
  1.596000000E-01  1.000000000E+00
   p   4
  9.439000000E+00  3.810902127E-02
  2.002000000E+00  2.094801169E-01
  5.456000000E-01  5.085572839E-01
  1.517000000E-01  4.688422617E-01
   p   1
  1.517000000E-01  1.000000000E+00
   d   1
  5.500000000E-01  1.000000000E+00
 
   3
   s   4
  1.301000000E+01  1.968498999E-02
  1.962000000E+00  1.379769298E-01
  4.446000000E-01  4.781477569E-01
  1.220000000E-01  5.012397451E-01
   s   1
  1.220000000E-01  1.000000000E+00
   p   1
  7.270000000E-01  1.000000000E+00
 
   4
   s   4
  1.301000000E+01  1.968498999E-02
  1.962000000E+00  1.379769298E-01
  4.446000000E-01  4.781477569E-01
  1.220000000E-01  5.012397451E-01
   s   1
  1.220000000E-01  1.000000000E+00
   p   1
  7.270000000E-01  1.000000000E+00
 
   5
   s   4
  1.301000000E+01  1.968498999E-02
  1.962000000E+00  1.379769298E-01
  4.446000000E-01  4.781477569E-01
  1.220000000E-01  5.012397451E-01
   s   1
  1.220000000E-01  1.000000000E+00
   p   1
  7.270000000E-01  1.000000000E+00
 
   6
   s   4
  1.301000000E+01  1.968498999E-02
  1.962000000E+00  1.379769298E-01
  4.446000000E-01  4.781477569E-01
  1.220000000E-01  5.012397451E-01
   s   1
  1.220000000E-01  1.000000000E+00
   p   1
  7.270000000E-01  1.000000000E+00
 
[MO]
Sym=     1a  
Ene=   -11.3660
Spin= Alpha
Occup=    2.00000
   1         1.00113132
   2         0.00628591
   3        -0.00732924
   4         0.00046681
   5        -0.00027558
   6        -0.00136177
   7        -0.00027052
   8         0.00032603
   9         0.00031549
  10         0.00038281
  11        -0.00015276
  12         0.00015888
  13        -0.00026564
  14         0.00082770
  15         0.00228363
  16        -0.00012625
  17         0.00108091
  18        -0.00000786
  19        -0.00003449
  20         0.00002609
  21        -0.00024761
  22        -0.00016471
  23        -0.00094482
  24        -0.00001465
  25         0.00003260
  26        -0.00005930
  27         0.00001220
  28        -0.00013287
  29        -0.00072232
  30         0.00142908
  31         0.00037387
  32         0.00042949
  33        -0.00023290
  34        -0.00076190
  35         0.00155085
  36        -0.00029036
  37        -0.00046391
  38        -0.00031545
  39         0.00025230
  40         0.00041452
  41        -0.00005440
  42         0.00001753
  43        -0.00014595
  44         0.00014316
  45         0.00021835
  46         0.00005927
  47        -0.00006877
  48        -0.00008491
Sym=     2a  
Ene=   -11.1660
Spin= Alpha
Occup=    2.00000
   1        -0.00261518
   2        -0.00036207
   3         0.00213109
   4         0.00000828
   5         0.00005199
   6        -0.00040775
   7         0.00031711
   8         0.00073288
   9         0.00111218
  10        -0.00071725
  11        -0.00001144
  12        -0.00000521
  13         0.00003251
  14         0.00002249
  15         1.00155555
  16         0.00870074
  17        -0.00964335
  18         0.00294119
  19         0.00297564
  20        -0.00192521
  21        -0.00276375
  22        -0.00301725
  23         0.00212650
  24         0.00003217
  25        -0.00010765
  26         0.00026289
  27         0.00001747
  28         0.00011091
  29        -0.00047873
  30         0.00005016
  31        -0.00003233
  32        -0.00004429
  33        -0.00008293
  34         0.00014715
  35         0.00046740
  36         0.00008965
  37         0.00010225
  38        -0.00002171
  39        -0.00031335
  40         0.00140604
  41         0.00086129
  42        -0.00004743
  43         0.00018525
  44        -0.00034346
  45         0.00161706
  46        -0.00005879
  47         0.00075264
  48         0.00024613
Sym=     3a  
Ene=    -1.0419
Spin= Alpha
Occup=    2.00000
   1        -0.01118702
   2         0.72099921
   3        -0.17194332
   4        -0.00094425
   5         0.00272284
   6         0.11802553
   7         0.00915382
   8         0.00982087
   9        -0.03458510
  10         0.01682749
  11        -0.00100038
  12         0.00063320
  13         0.00068685
  14         0.00028506
  15        -0.01917232
  16         0.45580485
  17        -0.12545274
  18         0.05949412
  19         0.04073699
  20        -0.16498216
  21        -0.02429695
  22        -0.01992497
  23         0.05262767
  24         0.01872160
  25        -0.00682679
  26        -0.00479136
  27         0.00128202
  28         0.00102619
  29         0.24241441
  30        -0.11840934
  31        -0.01262999
  32        -0.01433737
  33         0.01091104
  34         0.23852058
  35        -0.10866650
  36         0.00900229
  37         0.01445181
  38         0.01238322
  39         0.19020398
  40        -0.08611103
  41        -0.01539684
  42         0.00217157
  43        -0.00685495
  44         0.15421311
  45        -0.06844645
  46         0.00303054
  47        -0.01160806
  48        -0.00796889
Sym=     4a  
Ene=    -0.8155
Spin= Alpha
Occup=    2.00000
   1         0.00371577
   2        -0.38877598
   3         0.09005379
   4        -0.01681549
   5         0.04016516
   6         0.41916987
   7         0.00514980
   8        -0.00510934
   9        -0.07838095
  10         0.01389859
  11         0.00182809
  12        -0.00084704
  13         0.00310404
  14        -0.00862403
  15        -0.01443370
  16         0.50409298
  17        -0.13146772
  18         0.08641975
  19         0.09266798
  20         0.02360917
  21        -0.03331906
  22        -0.03739558
  23         0.01148789
  24        -0.00675629
  25        -0.00048890
  26         0.00103240
  27         0.00017247
  28         0.00203296
  29        -0.32691425
  30         0.12984103
  31         0.01311638
  32         0.01556700
  33        -0.00530146
  34        -0.37926948
  35         0.16000358
  36        -0.01260556
  37        -0.01912630
  38        -0.00919889
  39         0.27768807
  40        -0.10708344
  41        -0.01846441
  42         0.00444794
  43        -0.00381523
  44         0.29316050
  45        -0.11171219
  46         0.00569933
  47        -0.01730456
  48        -0.00913270
Sym=     5a  
Ene=    -0.6538
Spin= Alpha
Occup=    2.00000
   1        -0.00231834
   2        -0.03030267
   3         0.00338990
   4         0.40741504
   5         0.51953112
   6        -0.10311540
   7        -0.08588718
   8        -0.11024750
   9         0.02747264
  10        -0.00620123
  11        -0.01293411
  12        -0.01950034
  13         0.00355507
  14         0.00550520
  15        -0.00075636
  16        -0.09868409
  17         0.01440469
  18         0.09413244
  19         0.13521884
  20         0.09331948
  21        -0.01921544
  22        -0.02857419
  23        -0.03517116
  24        -0.01223496
  25        -0.00746495
  26        -0.01106611
  27        -0.00064901
  28         0.00674822
  29         0.56690908
  30        -0.17764972
  31        -0.01224874
  32        -0.01322516
  33         0.01249912
  34        -0.44602668
  35         0.15114694
  36        -0.00459395
  37        -0.00989152
  38        -0.01462943
  39         0.06475261
  40        -0.01807650
  41        -0.00167174
  42         0.00388730
  43        -0.00112795
  44         0.08618624
  45        -0.02844711
  46         0.00244754
  47        -0.00347656
  48         0.00015896
Sym=     6a  
Ene=    -0.5425
Spin= Alpha
Occup=    2.00000
   1        -0.00509961
   2        -0.21736596
   3        -0.00829784
   4        -0.03487203
   5        -0.12624941
   6        -0.55449359
   7         0.00702262
   8         0.02575206
   9         0.07517416
  10        -0.00758632
  11         0.00841279
  12         0.01962260
  13        -0.00501934
  14         0.00423966
  15        -0.00514710
  16         0.10614267
  17         0.05881776
  18         0.00629496
  19         0.20055044
  20         0.50377258
  21        -0.00140356
  22        -0.04273349
  23        -0.12831868
  24        -0.03271444
  25         0.01584460
  26         0.01918112
  27        -0.01001094
  28         0.00328460
  29         0.03169617
  30        -0.01465676
  31        -0.00279297
  32        -0.00540273
  33        -0.00752541
  34         0.32752704
  35        -0.08081584
  36         0.00623582
  37         0.00904848
  38        -0.00013099
  39         0.16361791
  40        -0.02531827
  41        -0.00812632
  42         0.00745792
  43         0.01099695
  44         0.48462816
  45        -0.10871723
  46         0.00481758
  47        -0.01790497
  48        -0.00297426
Sym=     7a  
Ene=    -0.4845
Spin= Alpha
Occup=    2.00000
   1        -0.00371620
   2        -0.09725934
   3         0.01095982
   4         0.23902234
   5        -0.21082613
   6        -0.11003188
   7         0.00713416
   8        -0.00160563
   9         0.01719161
  10        -0.00082134
  11         0.02712751
  12        -0.01191272
  13         0.00446124
  14         0.00037995
  15         0.00143739
  16        -0.03711058
  17        -0.00730221
  18         0.43098741
  19        -0.30422250
  20         0.08708066
  21        -0.06913939
  22         0.04783396
  23        -0.01417142
  24        -0.01357595
  25        -0.01107113
  26         0.01048416
  27         0.03499676
  28         0.00185613
  29        -0.00728726
  30        -0.00163260
  31         0.00332945
  32        -0.00416989
  33        -0.00154276
  34         0.06703054
  35        -0.01670500
  36         0.00558627
  37        -0.00103349
  38        -0.00089505
  39         0.56700252
  40        -0.08600551
  41        -0.01589637
  42        -0.00618316
  43        -0.01218061
  44        -0.33780621
  45         0.05201294
  46         0.00923909
  47         0.00895412
  48         0.01148581
Sym=     8a  
Ene=    -0.2849
Spin= Alpha
Occup=    2.00000
   1         0.00647462
   2         0.11455776
   3        -0.06484876
   4        -0.06631722
   5        -0.06968519
   6         0.12247430
   7         0.04071213
   8         0.04109226
   9        -0.04745528
  10         0.00139703
  11         0.02886636
  12         0.03650882
  13        -0.00078439
  14        -0.00673705
  15         0.00355200
  16        -0.37317144
  17        -0.13526287
  18         0.38352175
  19         0.53132946
  20        -0.24520452
  21         0.07365371
  22         0.09137084
  23        -0.06509519
  24        -0.00214261
  25        -0.01340740
  26        -0.01375796
  27        -0.00360266
  28         0.02287314
  29        -0.25641721
  30        -0.04207194
  31         0.00085915
  32         0.00169180
  33         0.00218520
  34         0.19980452
  35         0.00784426
  36        -0.00020658
  37         0.00042590
  38         0.00301752
  39         0.14210988
  40        -0.04176256
  41         0.00138965
  42         0.01647210
  43        -0.00909772
  44         0.18888777
  45        -0.03367189
  46         0.01213545
  47         0.00256199
  48        -0.01049682
Sym=     9a  
Ene=     0.0336
Spin= Alpha
Occup=    0.00000
   1         0.00185989
   2        -0.02920083
   3        -0.05187682
   4        -0.54144371
   5         0.40592524
   6        -0.11025360
   7        -0.28364976
   8         0.20674855
   9        -0.05247471
  10         0.00152277
  11         0.01527772
  12        -0.00756755
  13         0.00047041
  14         0.00164119
  15         0.00071286
  16        -0.01254427
  17         0.00433048
  18         0.13632304
  19        -0.08683748
  20         0.04066004
  21         0.03456041
  22        -0.02059019
  23         0.00191456
  24        -0.00504169
  25         0.01911462
  26        -0.01442876
  27         0.01756369
  28         0.00250220
  29        -0.01940800
  30         0.01629440
  31        -0.01434586
  32         0.01105950
  33        -0.00168816
  34         0.01393558
  35         0.02832897
  36        -0.01500819
  37         0.01160534
  38        -0.00299540
  39         0.34870378
  40         0.17738211
  41        -0.00640317
  42        -0.00051011
  43         0.00529145
  44        -0.25929251
  45        -0.09984597
  46         0.00432962
  47         0.00339790
  48         0.00136845
Sym=    10a  
Ene=     0.1723
Spin= Alpha
Occup=    0.00000
   1         0.04890471
   2        -0.22039581
   3        -1.49568133
   4        -0.07405969
   5        -0.07691619
   6         0.26253779
   7        -0.12633512
   8        -0.08951507
   9         0.53345242
  10        -0.00832091
  11         0.00099605
  12         0.00007615
  13         0.00439832
  14        -0.01509663
  15         0.03222861
  16         0.00501123
  17        -0.71048851
  18        -0.08119034
  19        -0.01967260
  20        -0.13403650
  21        -0.15413633
  22        -0.06407482
  23        -0.06062262
  24         0.00740666
  25        -0.00291694
  26        -0.00767362
  27        -0.00633211
  28         0.00159792
  29         0.04189963
  30         1.46107220
  31        -0.00687513
  32        -0.01125198
  33         0.00798509
  34         0.05611308
  35         0.97787050
  36         0.00562444
  37         0.00761333
  38         0.00630450
  39         0.00396192
  40         0.41214410
  41        -0.00711002
  42         0.00483137
  43        -0.00539420
  44         0.00007256
  45         0.29205232
  46         0.00351061
  47        -0.00152610
  48        -0.00717741
Sym=    11a  
Ene=     0.2129
Spin= Alpha
Occup=    0.00000
   1         0.02522279
   2        -0.08188216
   3        -0.79451003
   4         0.20468307
   5         0.27657456
   6         0.10072495
   7         0.42327078
   8         0.57799998
   9         0.08624742
  10         0.00762972
  11        -0.00697159
  12        -0.01046084
  13         0.00269034
  14        -0.00014749
  15        -0.05938880
  16         0.07004102
  17         1.28507265
  18         0.12686366
  19         0.09186673
  20         0.05423185
  21         0.23612730
  22         0.13053806
  23         0.08499285
  24        -0.01142019
  25        -0.00293328
  26         0.00691933
  27         0.00410628
  28         0.00556616
  29         0.03086245
  30        -0.64774770
  31         0.00135089
  32         0.00475346
  33        -0.00747044
  34         0.07954096
  35         1.65948741
  36         0.00939437
  37         0.01371768
  38         0.00841229
  39        -0.03251183
  40        -0.90680915
  41         0.01102876
  42        -0.00229216
  43         0.00314120
  44        -0.04598571
  45        -0.79231227
  46        -0.00321418
  47         0.01194500
  48         0.00647556
Sym=    12a  
Ene=     0.2448
Spin= Alpha
Occup=    0.00000
   1        -0.02778578
   2        -0.01697171
   3         0.65341803
   4         0.21768295
   5         0.28288338
   6        -0.01074971
   7         0.58713013
   8         0.75575920
   9         0.29402039
  10        -0.01331077
  11        -0.01377982
  12        -0.01360638
  13         0.00591597
  14         0.00231208
  15         0.07044300
  16        -0.02577035
  17        -1.56739658
  18        -0.19842622
  19        -0.08230216
  20        -0.00564314
  21        -0.61609134
  22        -0.46371533
  23        -0.01974521
  24         0.00997631
  25         0.00171336
  26        -0.01423746
  27        -0.00622225
  28        -0.01052891
  29        -0.04582970
  30        -1.60706517
  31         0.01337302
  32         0.01026998
  33        -0.00580569
  34        -0.04627228
  35         1.19215452
  36         0.00351139
  37         0.00555877
  38         0.01031882
  39        -0.00606783
  40         1.12078238
  41        -0.01536969
  42         0.00413106
  43         0.00002178
  44        -0.02534191
  45         0.77906927
  46         0.00348396
  47        -0.01170808
  48        -0.00727996
Sym=    13a  
Ene=     0.2806
Spin= Alpha
Occup=    0.00000
   1         0.00210378
   2         0.03854462
   3        -0.02891734
   4         0.02182571
   5         0.01199113
   6         0.05442618
   7        -0.14467559
   8         0.34563287
   9         0.11142018
  10         0.00129277
  11         0.00966360
  12        -0.02141277
  13        -0.01976437
  14         0.00241708
  15         0.01651520
  16        -0.03110123
  17        -0.44513008
  18         0.33541031
  19        -0.33510260
  20        -0.02280667
  21         0.69935125
  22        -0.82676863
  23        -0.11028235
  24         0.00207446
  25        -0.01313372
  26         0.00106923
  27         0.04794268
  28         0.00147693
  29         0.03559701
  30        -0.10179266
  31        -0.00734309
  32         0.00938427
  33        -0.00222132
  34         0.00871672
  35         0.23520474
  36         0.00284328
  37        -0.00167658
  38         0.00648122
  39        -0.05524381
  40        -1.40319930
  41         0.01769910
  42        -0.00112327
  43         0.01206986
  44         0.02437904
  45         1.86078264
  46         0.00673049
  47        -0.02392451
  48        -0.01561951
Sym=    14a  
Ene=     0.4253
Spin= Alpha
Occup=    0.00000
   1        -0.03126623
   2         0.14825335
   3         2.13483137
   4        -0.04949154
   5         0.00858192
   6         0.19475371
   7        -0.39593103
   8        -0.22852132
   9         2.59283324
  10         0.01251658
  11         0.01839887
  12         0.03039016
  13        -0.01482497
  14         0.03251013
  15         0.07732168
  16         0.03633557
  17        -2.64592567
  18         0.07384483
  19         0.11914244
  20         0.36356333
  21        -0.05187355
  22         0.11172378
  23         2.22045599
  24        -0.05000983
  25         0.01644890
  26         0.01046251
  27        -0.01114872
  28         0.01798146
  29         0.17431925
  30         0.76121944
  31         0.00293498
  32         0.00827969
  33         0.02544438
  34         0.33036913
  35         0.18269745
  36        -0.01434743
  37        -0.01640462
  38         0.00210307
  39        -0.18954745
  40        -0.11329408
  41        -0.00038409
  42         0.00980030
  43         0.00867570
  44         0.00287208
  45        -0.71311659
  46         0.00856498
  47        -0.00178479
  48         0.00404802
Sym=    15a  
Ene=     0.5813
Spin= Alpha
Occup=    0.00000
   1        -0.08082716
   2        -0.47195248
   3         0.07415220
   4         0.08537090
   5        -0.12513025
   6        -0.76106009
   7         0.03853279
   8         0.23069682
   9         1.55832781
  10        -0.03151996
  11         0.00959384
  12        -0.00624135
  13         0.00044117
  14         0.05155676
  15        -0.06317050
  16        -0.21793331
  17        -0.24330416
  18         0.07621500
  19        -0.03450002
  20         0.35890713
  21        -0.31316846
  22        -0.08586165
  23        -0.70871181
  24        -0.09965156
  25         0.01166587
  26        -0.00552997
  27         0.05426075
  28         0.00259899
  29         0.51113895
  30        -0.20460803
  31         0.00879562
  32         0.01283931
  33         0.01096277
  34         0.57594500
  35        -0.10421156
  36        -0.00350583
  37        -0.00663313
  38         0.03630598
  39         0.74975635
  40        -0.87314688
  41         0.03138307
  42         0.01034389
  43         0.00776293
  44         0.02960762
  45         0.14885715
  46         0.00020944
  47        -0.01297475
  48        -0.03143245
Sym=    16a  
Ene=     0.6302
Spin= Alpha
Occup=    0.00000
   1         0.02922333
   2         0.09451706
   3        -0.63965884
   4        -0.20391532
   5         0.15411160
   6        -0.12633014
   7        -0.26638738
   8        -0.32144409
   9         0.07712267
  10        -0.04763507
  11        -0.09517593
  12        -0.11146582
  13        -0.03511678
  14         0.03857070
  15        -0.01830073
  16        -0.10059139
  17         0.19649779
  18        -0.15309486
  19         0.16068337
  20         0.06464249
  21         0.70678950
  22        -0.41476812
  23        -0.52999170
  24        -0.00243504
  25         0.02090459
  26         0.06918431
  27        -0.10106052
  28        -0.00234165
  29         0.91475747
  30        -0.67556354
  31         0.01350265
  32         0.03654975
  33        -0.03560686
  34        -0.42497932
  35         0.40160851
  36        -0.01816758
  37         0.01543679
  38         0.06902311
  39        -0.71365845
  40         0.71300593
  41        -0.00819094
  42        -0.01514620
  43         0.05450382
  44         1.15917471
  45        -0.90802243
  46         0.01245632
  47         0.04110972
  48         0.02974003
Sym=    17a  
Ene=     0.6833
Spin= Alpha
Occup=    0.00000
   1         0.09327316
   2         0.12488707
   3        -0.22291434
   4        -0.57451416
   5         0.39663690
   6         0.21327924
   7         0.69005067
   8        -0.59840885
   9        -0.27529113
  10         0.08633745
  11        -0.08176451
  12         0.00398941
  13        -0.04111027
  14         0.22025251
  15         0.07988105
  16         0.43150587
  17        -0.31865514
  18        -0.09640908
  19        -0.08505909
  20        -0.53369158
  21        -0.03539618
  22         0.28633173
  23         0.48087574
  24        -0.01613352
  25         0.05933596
  26        -0.03455661
  27         0.04276982
  28         0.02372201
  29         1.08675239
  30        -1.02066042
  31         0.06602966
  32         0.09677903
  33        -0.05698620
  34         0.84016829
  35        -0.72918691
  36        -0.05936658
  37        -0.06433705
  38        -0.05603265
  39         0.29237948
  40        -0.25595036
  41         0.03344342
  42         0.00938444
  43         0.02343568
  44        -0.38582566
  45         0.51206471
  46        -0.00107342
  47        -0.01081611
  48         0.01219517
Sym=    18a  
Ene=     0.7031
Spin= Alpha
Occup=    0.00000
   1         0.04756992
   2         0.02087726
   3        -0.30717544
   4         1.06481654
   5        -0.80074847
   6         0.23273408
   7        -1.33760259
   8         1.00996283
   9        -0.43360861
  10         0.04108960
  11        -0.00790105
  12        -0.00743484
  13        -0.03400267
  14         0.13013488
  15         0.03380854
  16         0.23123409
  17         0.00103887
  18        -0.14333422
  19        -0.03647670
  20        -0.26665026
  21         0.27539999
  22         0.00865344
  23         0.11382279
  24        -0.00728989
  25        -0.07025456
  26         0.06115315
  27        -0.01242927
  28         0.01313270
  29         0.57188751
  30        -0.59192139
  31         0.06623583
  32         0.02893056
  33        -0.01090652
  34         0.58084588
  35        -0.50311280
  36        -0.00845392
  37        -0.05700739
  38        -0.02992904
  39        -0.33544026
  40         0.73892157
  41        -0.01305189
  42         0.01570846
  43         0.00970176
  44         0.00758278
  45        -0.24563214
  46        -0.00301920
  47         0.02505298
  48        -0.01287874
Sym=    19a  
Ene=     0.7086
Spin= Alpha
Occup=    0.00000
   1        -0.00949679
   2         0.06215988
   3         0.76343576
   4         0.17405176
   5        -0.23575836
   6         0.20472462
   7        -0.55604701
   8        -0.49500727
   9         0.20668393
  10         0.00099393
  11        -0.07178451
  12        -0.14922728
  13         0.09010908
  14        -0.02167996
  15        -0.00084291
  16        -0.24510298
  17        -0.50420093
  18         0.42727521
  19         0.18653887
  20        -0.16041102
  21        -0.72653222
  22         0.37310068
  23         0.84838756
  24        -0.00972471
  25         0.04038013
  26         0.06991736
  27         0.08352684
  28        -0.01233950
  29         0.73641755
  30        -0.35290448
  31         0.02993862
  32        -0.01100966
  33        -0.08597393
  34        -1.18626800
  35         0.86833268
  36         0.01245563
  37         0.02724476
  38         0.08584494
  39         0.95007726
  40        -0.62146257
  41         0.00922429
  42         0.00915303
  43         0.01262433
  44        -0.18195958
  45        -0.10410323
  46         0.00567640
  47        -0.00523810
  48         0.05660875
Sym=    20a  
Ene=     0.7835
Spin= Alpha
Occup=    0.00000
   1         0.04187593
   2         0.29732926
   3        -0.69341981
   4        -0.17532213
   5        -0.26055244
   6         0.23258437
   7         0.30346502
   8         0.29893622
   9        -0.33023812
  10        -0.15300944
  11        -0.10992983
  12        -0.15163763
  13         0.03508810
  14        -0.00374977
  15        -0.02616265
  16        -0.05055807
  17         0.98258140
  18        -0.72054837
  19        -0.94147919
  20         0.50646470
  21         1.02720553
  22         1.50186891
  23        -0.51491626
  24         0.06025617
  25         0.03755850
  26         0.06264890
  27         0.04707691
  28        -0.00950194
  29         0.02968364
  30        -0.39021045
  31         0.05361948
  32         0.05838128
  33         0.02099847
  34        -0.20385617
  35         0.66486475
  36         0.03989742
  37         0.05459081
  38         0.05529537
  39         0.12575317
  40        -0.50565695
  41         0.09809687
  42        -0.03054754
  43         0.06292809
  44        -0.28811336
  45        -0.24044492
  46        -0.03788298
  47         0.04743250
  48         0.09605875
Sym=    21a  
Ene=     0.8352
Spin= Alpha
Occup=    0.00000
   1        -0.01200651
   2        -0.05558044
   3         0.39940532
   4        -0.76576960
   5        -1.05011743
   6        -0.24190587
   7         1.78041542
   8         2.54179578
   9         0.59667102
  10         0.05767962
  11        -0.13071570
  12        -0.13017679
  13        -0.00067300
  14        -0.00965414
  15         0.00984281
  16         0.01980547
  17        -0.36996041
  18        -0.00808163
  19         0.32448086
  20        -0.27561215
  21        -0.20019869
  22        -0.93445354
  23         0.53057275
  24        -0.03460723
  25         0.03251577
  26         0.02559476
  27        -0.00694747
  28        -0.00056414
  29        -0.11551693
  30        -1.35993567
  31         0.08778259
  32         0.11221057
  33        -0.11771105
  34        -0.08065417
  35         1.67290272
  36         0.10095898
  37         0.14280120
  38         0.11749964
  39        -0.02660556
  40        -0.17985816
  41         0.03003396
  42         0.02421608
  43        -0.01795765
  44         0.08025739
  45         0.06795796
  46         0.00999701
  47         0.00846099
  48        -0.07584802
Sym=    22a  
Ene=     0.8745
Spin= Alpha
Occup=    0.00000
   1         0.13361136
   2         0.63611496
   3        -0.75577403
   4         0.33396197
   5         0.14048318
   6        -0.53464804
   7        -0.87060938
   8        -0.51749671
   9         1.26367378
  10         0.11479773
  11        -0.15461109
  12         0.07145438
  13        -0.00255888
  14        -0.09967912
  15        -0.00865918
  16         0.04706702
  17        -0.36078128
  18        -0.93223695
  19         0.49290508
  20        -0.42118888
  21         1.74179868
  22        -0.60233282
  23         0.88057987
  24        -0.10860325
  25         0.08518322
  26        -0.08496725
  27         0.17033211
  28         0.01780398
  29        -0.14495121
  30         1.12245977
  31        -0.08700707
  32        -0.09176034
  33         0.02761719
  34        -0.31710640
  35         0.46199612
  36         0.07784008
  37         0.03154447
  38         0.01472202