[Molden Format]
[N_Atoms]
                    6
[Atoms] (AU)
C1          1      6          -0.05966640      0.05497056     -1.13951594
C2          2      6          -0.46184662      0.05921748      1.45946885
H3          3      1           1.19839972      1.35256969     -2.16307954
H4          4      1          -0.76103847     -1.47788198     -2.33264364
H5          5      1           1.74086415     -0.20702737      1.37454818
H6          6      1          -0.46576874      1.83586405      2.51707238
[5D]
[7F]
[9G]
[Charge] (Mulliken)
   0.0000000000000000     
   0.0000000000000000     
   0.0000000000000000     
   0.0000000000000000     
   0.0000000000000000     
   0.0000000000000000     
[GTO] (AU)
   1
   s   9
  6.665000000E+03  6.920001793E-04
  1.000000000E+03  5.329001381E-03
  2.280000000E+02  2.707700701E-02
  6.471000000E+01  1.017180264E-01
  2.106000000E+01  2.747400712E-01
  7.495000000E+00  4.485641162E-01
  2.797000000E+00  2.850740738E-01
  5.215000000E-01  1.520400394E-02
  1.596000000E-01 -3.191000827E-03
   s   9
  6.665000000E+03 -1.460000642E-04
  1.000000000E+03 -1.154000508E-03
  2.280000000E+02 -5.725002519E-03
  6.471000000E+01 -2.331201026E-02
  2.106000000E+01 -6.395502813E-02
  7.495000000E+00 -1.499810660E-01
  2.797000000E+00 -1.272620560E-01
  5.215000000E-01  5.445292395E-01
  1.596000000E-01  5.804962554E-01
   s   1
  1.596000000E-01  1.000000000E+00
   p   4
  9.439000000E+00  3.810902127E-02
  2.002000000E+00  2.094801169E-01
  5.456000000E-01  5.085572839E-01
  1.517000000E-01  4.688422617E-01
   p   1
  1.517000000E-01  1.000000000E+00
   d   1
  5.500000000E-01  1.000000000E+00
 
   2
   s   9
  6.665000000E+03  6.920001793E-04
  1.000000000E+03  5.329001381E-03
  2.280000000E+02  2.707700701E-02
  6.471000000E+01  1.017180264E-01
  2.106000000E+01  2.747400712E-01
  7.495000000E+00  4.485641162E-01
  2.797000000E+00  2.850740738E-01
  5.215000000E-01  1.520400394E-02
  1.596000000E-01 -3.191000827E-03
   s   9
  6.665000000E+03 -1.460000642E-04
  1.000000000E+03 -1.154000508E-03
  2.280000000E+02 -5.725002519E-03
  6.471000000E+01 -2.331201026E-02
  2.106000000E+01 -6.395502813E-02
  7.495000000E+00 -1.499810660E-01
  2.797000000E+00 -1.272620560E-01
  5.215000000E-01  5.445292395E-01
  1.596000000E-01  5.804962554E-01
   s   1
  1.596000000E-01  1.000000000E+00
   p   4
  9.439000000E+00  3.810902127E-02
  2.002000000E+00  2.094801169E-01
  5.456000000E-01  5.085572839E-01
  1.517000000E-01  4.688422617E-01
   p   1
  1.517000000E-01  1.000000000E+00
   d   1
  5.500000000E-01  1.000000000E+00
 
   3
   s   4
  1.301000000E+01  1.968498999E-02
  1.962000000E+00  1.379769298E-01
  4.446000000E-01  4.781477569E-01
  1.220000000E-01  5.012397451E-01
   s   1
  1.220000000E-01  1.000000000E+00
   p   1
  7.270000000E-01  1.000000000E+00
 
   4
   s   4
  1.301000000E+01  1.968498999E-02
  1.962000000E+00  1.379769298E-01
  4.446000000E-01  4.781477569E-01
  1.220000000E-01  5.012397451E-01
   s   1
  1.220000000E-01  1.000000000E+00
   p   1
  7.270000000E-01  1.000000000E+00
 
   5
   s   4
  1.301000000E+01  1.968498999E-02
  1.962000000E+00  1.379769298E-01
  4.446000000E-01  4.781477569E-01
  1.220000000E-01  5.012397451E-01
   s   1
  1.220000000E-01  1.000000000E+00
   p   1
  7.270000000E-01  1.000000000E+00
 
   6
   s   4
  1.301000000E+01  1.968498999E-02
  1.962000000E+00  1.379769298E-01
  4.446000000E-01  4.781477569E-01
  1.220000000E-01  5.012397451E-01
   s   1
  1.220000000E-01  1.000000000E+00
   p   1
  7.270000000E-01  1.000000000E+00
 
[MO]
Sym=     1a  
Ene=   -11.2920
Spin= Alpha
Occup=    1.00000
   1         1.00129460
   2         0.00763655
   3        -0.00828378
   4         0.00061349
   5        -0.00034998
   6        -0.00023622
   7        -0.00048525
   8         0.00041999
   9        -0.00034804
  10         0.00042304
  11        -0.00027609
  12         0.00015911
  13        -0.00023991
  14         0.00056519
  15         0.00803502
  16        -0.00010076
  17         0.00071161
  18         0.00013273
  19         0.00003917
  20         0.00021039
  21        -0.00037409
  22        -0.00012669
  23        -0.00090619
  24        -0.00023034
  25         0.00009023
  26        -0.00011095
  27         0.00004259
  28        -0.00009927
  29        -0.00066865
  30         0.00137179
  31         0.00038104
  32         0.00040005
  33        -0.00017696
  34        -0.00052482
  35         0.00148808
  36        -0.00020287
  37        -0.00043978
  38        -0.00022155
  39         0.00035166
  40         0.00060834
  41         0.00007467
  42        -0.00002923
  43        -0.00007298
  44         0.00027406
  45         0.00015553
  46         0.00006336
  47        -0.00010177
  48        -0.00007644
Sym=     1a  
Ene=   -11.2920
Spin= Beta
Occup=    1.00000
   1         1.00129460
   2         0.00763655
   3        -0.00828378
   4         0.00061349
   5        -0.00034998
   6        -0.00023622
   7        -0.00048525
   8         0.00041999
   9        -0.00034804
  10         0.00042304
  11        -0.00027609
  12         0.00015911
  13        -0.00023991
  14         0.00056519
  15         0.00803502
  16        -0.00010076
  17         0.00071161
  18         0.00013273
  19         0.00003917
  20         0.00021039
  21        -0.00037409
  22        -0.00012669
  23        -0.00090619
  24        -0.00023034
  25         0.00009023
  26        -0.00011095
  27         0.00004259
  28        -0.00009927
  29        -0.00066865
  30         0.00137179
  31         0.00038104
  32         0.00040005
  33        -0.00017696
  34        -0.00052482
  35         0.00148808
  36        -0.00020287
  37        -0.00043978
  38        -0.00022155
  39         0.00035166
  40         0.00060834
  41         0.00007467
  42        -0.00002923
  43        -0.00007298
  44         0.00027406
  45         0.00015553
  46         0.00006336
  47        -0.00010177
  48        -0.00007644
Sym=     2a  
Ene=   -11.2230
Spin= Alpha
Occup=    1.00000
   1        -0.00848613
   2        -0.00066275
   3         0.00233505
   4         0.00002502
   5         0.00003765
   6        -0.00040751
   7        -0.00002165
   8         0.00074286
   9         0.00124761
  10        -0.00049277
  11         0.00008975
  12         0.00013658
  13         0.00006293
  14        -0.00006158
  15         1.00145572
  16         0.00839230
  17        -0.00972308
  18         0.00220446
  19         0.00149872
  20        -0.00133686
  21        -0.00222516
  22        -0.00195364
  23         0.00171582
  24         0.00025514
  25        -0.00023233
  26         0.00046324
  27         0.00005908
  28        -0.00004811
  29        -0.00009274
  30        -0.00009629
  31        -0.00008453
  32        -0.00009770
  33        -0.00002669
  34         0.00006995
  35         0.00050631
  36         0.00006766
  37         0.00005403
  38         0.00003890
  39        -0.00018500
  40         0.00128820
  41         0.00072290
  42        -0.00007258
  43         0.00010648
  44        -0.00025786
  45         0.00165329
  46         0.00004291
  47         0.00059161
  48         0.00012522
Sym=     2a  
Ene=   -11.2230
Spin= Beta
Occup=    1.00000
   1        -0.00848613
   2        -0.00066275
   3         0.00233505
   4         0.00002502
   5         0.00003765
   6        -0.00040751
   7        -0.00002165
   8         0.00074286
   9         0.00124761
  10        -0.00049277
  11         0.00008975
  12         0.00013658
  13         0.00006293
  14        -0.00006158
  15         1.00145572
  16         0.00839230
  17        -0.00972308
  18         0.00220446
  19         0.00149872
  20        -0.00133686
  21        -0.00222516
  22        -0.00195364
  23         0.00171582
  24         0.00025514
  25        -0.00023233
  26         0.00046324
  27         0.00005908
  28        -0.00004811
  29        -0.00009274
  30        -0.00009629
  31        -0.00008453
  32        -0.00009770
  33        -0.00002669
  34         0.00006995
  35         0.00050631
  36         0.00006766
  37         0.00005403
  38         0.00003890
  39        -0.00018500
  40         0.00128820
  41         0.00072290
  42        -0.00007258
  43         0.00010648
  44        -0.00025786
  45         0.00165329
  46         0.00004291
  47         0.00059161
  48         0.00012522
Sym=     3a  
Ene=    -1.0525
Spin= Alpha
Occup=    1.00000
   1        -0.01658679
   2         0.63232603
   3        -0.16014505
   4        -0.00161738
   5         0.00590050
   6         0.16568651
   7         0.00523398
   8         0.00628451
   9        -0.05184085
  10         0.01722524
  11        -0.00178489
  12         0.00113118
  13         0.00122308
  14        -0.00107832
  15        -0.01858840
  16         0.54068609
  17        -0.15205815
  18         0.08361494
  19         0.03062560
  20        -0.18406036
  21        -0.03215235
  22        -0.01632576
  23         0.06144570
  24         0.01915825
  25        -0.00808425
  26        -0.00187495
  27         0.00264873
  28         0.00021195
  29         0.19732247
  30        -0.09466586
  31        -0.01044664
  32        -0.01135176
  33         0.01101506
  34         0.18922015
  35        -0.08612160
  36         0.00576286
  37         0.01234743
  38         0.01095211
  39         0.25204407
  40        -0.11706058
  41        -0.02028938
  42         0.00404787
  43        -0.00652208
  44         0.17148399
  45        -0.07695345
  46         0.00246211
  47        -0.01208696
  48        -0.01053784
Sym=     3a  
Ene=    -1.0525
Spin= Beta
Occup=    1.00000
   1        -0.01658679
   2         0.63232603
   3        -0.16014505
   4        -0.00161738
   5         0.00590050
   6         0.16568651
   7         0.00523398
   8         0.00628451
   9        -0.05184085
  10         0.01722524
  11        -0.00178489
  12         0.00113118
  13         0.00122308
  14        -0.00107832
  15        -0.01858840
  16         0.54068609
  17        -0.15205815
  18         0.08361494
  19         0.03062560
  20        -0.18406036
  21        -0.03215235
  22        -0.01632576
  23         0.06144570
  24         0.01915825
  25        -0.00808425
  26        -0.00187495
  27         0.00264873
  28         0.00021195
  29         0.19732247
  30        -0.09466586
  31        -0.01044664
  32        -0.01135176
  33         0.01101506
  34         0.18922015
  35        -0.08612160
  36         0.00576286
  37         0.01234743
  38         0.01095211
  39         0.25204407
  40        -0.11706058
  41        -0.02028938
  42         0.00404787
  43        -0.00652208
  44         0.17148399
  45        -0.07695345
  46         0.00246211
  47        -0.01208696
  48        -0.01053784
Sym=     4a  
Ene=    -0.7966
Spin= Alpha
Occup=    1.00000
   1         0.01076706
   2        -0.45796517
   3         0.07733465
   4        -0.03273236
   5         0.05617563
   6         0.34307076
   7         0.00532305
   8        -0.01246703
   9        -0.07853459
  10         0.01366885
  11         0.00091055
  12         0.00017862
  13         0.00266503
  14        -0.00709782
  15        -0.01077013
  16         0.46926417
  17        -0.09956003
  18         0.07681965
  19         0.10688742
  20         0.09495131
  21        -0.02563478
  22        -0.03675962
  23        -0.01119767
  24        -0.01058602
  25         0.00045879
  26         0.00297895
  27        -0.00008022
  28         0.00095577
  29        -0.34306299
  30         0.13255352
  31         0.01435975
  32         0.01608614
  33        -0.00655902
  34        -0.39391185
  35         0.15773474
  36        -0.01083153
  37        -0.02065332
  38        -0.01041098
  39         0.22861705
  40        -0.08900012
  41        -0.01511612
  42         0.00475719
  43         0.00388957
  44         0.33101377
  45        -0.12666396
  46         0.00318374
  47        -0.01830936
  48        -0.01096406
Sym=     4a  
Ene=    -0.7966
Spin= Beta
Occup=    1.00000
   1         0.01076706
   2        -0.45796517
   3         0.07733465
   4        -0.03273236
   5         0.05617563
   6         0.34307076
   7         0.00532305
   8        -0.01246703
   9        -0.07853459
  10         0.01366885
  11         0.00091055
  12         0.00017862
  13         0.00266503
  14        -0.00709782
  15        -0.01077013
  16         0.46926417
  17        -0.09956003
  18         0.07681965
  19         0.10688742
  20         0.09495131
  21        -0.02563478
  22        -0.03675962
  23        -0.01119767
  24        -0.01058602
  25         0.00045879
  26         0.00297895
  27        -0.00008022
  28         0.00095577
  29        -0.34306299
  30         0.13255352
  31         0.01435975
  32         0.01608614
  33        -0.00655902
  34        -0.39391185
  35         0.15773474
  36        -0.01083153
  37        -0.02065332
  38        -0.01041098
  39         0.22861705
  40        -0.08900012
  41        -0.01511612
  42         0.00475719
  43         0.00388957
  44         0.33101377
  45        -0.12666396
  46         0.00318374
  47        -0.01830936
  48        -0.01096406
Sym=     5a  
Ene=    -0.6215
Spin= Alpha
Occup=    1.00000
   1        -0.00193881
   2        -0.03591248
   3         0.01138334
   4         0.37648529
   5         0.45445730
   6        -0.21752981
   7        -0.07498498
   8        -0.08962822
   9         0.05526267
  10        -0.00964055
  11        -0.00584470
  12        -0.00952318
  13         0.00488122
  14         0.00817953
  15        -0.00171681
  16        -0.08735338
  17         0.01770909
  18         0.07623601
  19         0.20004813
  20         0.22701916
  21        -0.01724218
  22        -0.04468531
  23        -0.05918585
  24        -0.01608165
  25        -0.00421379
  26        -0.00909273
  27        -0.00216544
  28         0.00615635
  29         0.57388292
  30        -0.17068586
  31        -0.01293552
  32        -0.01321615
  33         0.01236590
  34        -0.33905066
  35         0.11117431
  36        -0.00025443
  37        -0.00718501
  38        -0.01420158
  39         0.05074635
  40        -0.00611183
  41        -0.00024527
  42         0.00726991
  43        -0.00051833
  44         0.21105352
  45        -0.06813174
  46         0.00168756
  47        -0.00893726
  48        -0.00206534
Sym=     5a  
Ene=    -0.6215
Spin= Beta
Occup=    1.00000
   1        -0.00193881
   2        -0.03591248
   3         0.01138334
   4         0.37648529
   5         0.45445730
   6        -0.21752981
   7        -0.07498498
   8        -0.08962822
   9         0.05526267
  10        -0.00964055
  11        -0.00584470
  12        -0.00952318
  13         0.00488122
  14         0.00817953
  15        -0.00171681
  16        -0.08735338
  17         0.01770909
  18         0.07623601
  19         0.20004813
  20         0.22701916
  21        -0.01724218
  22        -0.04468531
  23        -0.05918585
  24        -0.01608165
  25        -0.00421379
  26        -0.00909273
  27        -0.00216544
  28         0.00615635
  29         0.57388292
  30        -0.17068586
  31        -0.01293552
  32        -0.01321615
  33         0.01236590
  34        -0.33905066
  35         0.11117431
  36        -0.00025443
  37        -0.00718501
  38        -0.01420158
  39         0.05074635
  40        -0.00611183
  41        -0.00024527
  42         0.00726991
  43        -0.00051833
  44         0.21105352
  45        -0.06813174
  46         0.00168756
  47        -0.00893726
  48        -0.00206534
Sym=     6a  
Ene=    -0.5722
Spin= Alpha
Occup=    1.00000
   1        -0.00133178
   2        -0.05806084
   3        -0.00366648
   4        -0.16970458
   5        -0.17774535
   6        -0.40136540
   7         0.02593084
   8         0.04139646
   9         0.06867818
  10        -0.00906804
  11        -0.00263724
  12         0.02197663
  13        -0.00877741
  14         0.00206073
  15        -0.00530070
  16         0.12034109
  17         0.04255449
  18        -0.20298595
  19         0.27669964
  20         0.41395590
  21         0.04260137
  22        -0.05720725
  23        -0.10782731
  24        -0.01217698
  25         0.01759392
  26         0.01780279
  27        -0.02164585
  28         0.00308658
  29        -0.06338139
  30         0.00973712
  31        -0.00193729
  32        -0.00192073
  33        -0.00866158
  34         0.39464730
  35        -0.10443052
  36         0.00374279
  37         0.01196139
  38         0.00576672
  39        -0.21074202
  40         0.06902107
  41         0.00603162
  42         0.00472737
  43         0.01552713
  44         0.54232750
  45        -0.13660248
  46        -0.00308541
  47        -0.01823580
  48        -0.00861454
Sym=     6a  
Ene=    -0.5722
Spin= Beta
Occup=    1.00000
   1        -0.00133178
   2        -0.05806084
   3        -0.00366648
   4        -0.16970458
   5        -0.17774535
   6        -0.40136540
   7         0.02593084
   8         0.04139646
   9         0.06867818
  10        -0.00906804
  11        -0.00263724
  12         0.02197663
  13        -0.00877741
  14         0.00206073
  15        -0.00530070
  16         0.12034109
  17         0.04255449
  18        -0.20298595
  19         0.27669964
  20         0.41395590
  21         0.04260137
  22        -0.05720725
  23        -0.10782731
  24        -0.01217698
  25         0.01759392
  26         0.01780279
  27        -0.02164585
  28         0.00308658
  29        -0.06338139
  30         0.00973712
  31        -0.00193729
  32        -0.00192073
  33        -0.00866158
  34         0.39464730
  35        -0.10443052
  36         0.00374279
  37         0.01196139
  38         0.00576672
  39        -0.21074202
  40         0.06902107
  41         0.00603162
  42         0.00472737
  43         0.01552713
  44         0.54232750
  45        -0.13660248
  46        -0.00308541
  47        -0.01823580
  48        -0.00861454
Sym=     7a  
Ene=    -0.5050
Spin= Alpha
Occup=    1.00000
   1        -0.00161242
   2        -0.16834679
   3        -0.00117954
   4         0.23680575
   5        -0.31569714
   6        -0.26687910
   7        -0.01492638
   8         0.02372308
   9         0.03827459
  10        -0.00672878
  11         0.02898585
  12        -0.00243106
  13        -0.00108910
  14        -0.00025194
  15        -0.00072836
  16        -0.05422253
  17         0.02051566
  18         0.39748188
  19        -0.20203719
  20         0.31235797
  21        -0.05512849
  22         0.03177769
  23        -0.05667977
  24        -0.02776694
  25        -0.00532694
  26         0.01644822
  27         0.02250553
  28        -0.00397324
  29        -0.04233179
  30         0.00183563
  31         0.00510020
  32        -0.00651984
  33        -0.00401078
  34         0.23148092
  35        -0.05974025
  36         0.00862223
  37         0.00327059
  38         0.00140723
  39         0.54613914
  40        -0.08893405
  41        -0.01751571
  42        -0.00122415
  43        -0.00176912
  44        -0.05743889
  45         0.00504095
  46         0.01030129
  47        -0.00077837
  48         0.00778372
Sym=     7a  
Ene=    -0.5050
Spin= Beta
Occup=    1.00000
   1        -0.00161242
   2        -0.16834679
   3        -0.00117954
   4         0.23680575
   5        -0.31569714
   6        -0.26687910
   7        -0.01492638
   8         0.02372308
   9         0.03827459
  10        -0.00672878
  11         0.02898585
  12        -0.00243106
  13        -0.00108910
  14        -0.00025194
  15        -0.00072836
  16        -0.05422253
  17         0.02051566
  18         0.39748188
  19        -0.20203719
  20         0.31235797
  21        -0.05512849
  22         0.03177769
  23        -0.05667977
  24        -0.02776694
  25        -0.00532694
  26         0.01644822
  27         0.02250553
  28        -0.00397324
  29        -0.04233179
  30         0.00183563
  31         0.00510020
  32        -0.00651984
  33        -0.00401078
  34         0.23148092
  35        -0.05974025
  36         0.00862223
  37         0.00327059
  38         0.00140723
  39         0.54613914
  40        -0.08893405
  41        -0.01751571
  42        -0.00122415
  43        -0.00176912
  44        -0.05743889
  45         0.00504095
  46         0.01030129
  47        -0.00077837
  48         0.00778372
Sym=     8a  
Ene=    -0.2275
Spin= Alpha
Occup=    0.87975
   1         0.00473112
   2         0.06473086
   3        -0.09132745
   4        -0.38130299
   5         0.16511552
   6        -0.01647084
   7        -0.08435266
   8         0.07189937
   9        -0.07838828
  10         0.00405884
  11         0.02735549
  12         0.03307148
  13        -0.00337031
  14        -0.00340002
  15        -0.00008781
  16        -0.31582214
  17        -0.07020246
  18         0.44958996
  19         0.43898591
  20        -0.17559473
  21         0.08201139
  22         0.06462126
  23        -0.04864219
  24        -0.00527133
  25         0.00651533
  26        -0.01649256
  27         0.01599305
  28         0.01458627
  29        -0.23620796
  30        -0.01790291
  31        -0.00628465
  32         0.00682059
  33        -0.00104465
  34         0.17825474
  35         0.00936575
  36        -0.00829522
  37         0.00493784
  38         0.00001993
  39         0.29170974
  40         0.01271123
  41        -0.00282196
  42         0.01321901
  43         0.00266334
  44         0.06107919
  45        -0.05318687
  46         0.01333845
  47         0.00210318
  48        -0.00937086
Sym=     8a  
Ene=    -0.2275
Spin= Beta
Occup=    0.87975
   1         0.00473112
   2         0.06473086
   3        -0.09132745
   4        -0.38130299
   5         0.16511552
   6        -0.01647084
   7        -0.08435266
   8         0.07189937
   9        -0.07838828
  10         0.00405884
  11         0.02735549
  12         0.03307148
  13        -0.00337031
  14        -0.00340002
  15        -0.00008781
  16        -0.31582214
  17        -0.07020246
  18         0.44958996
  19         0.43898591
  20        -0.17559473
  21         0.08201139
  22         0.06462126
  23        -0.04864219
  24        -0.00527133
  25         0.00651533
  26        -0.01649256
  27         0.01599305
  28         0.01458627
  29        -0.23620796
  30        -0.01790291
  31        -0.00628465
  32         0.00682059
  33        -0.00104465
  34         0.17825474
  35         0.00936575
  36        -0.00829522
  37         0.00493784
  38         0.00001993
  39         0.29170974
  40         0.01271123
  41        -0.00282196
  42         0.01321901
  43         0.00266334
  44         0.06107919
  45        -0.05318687
  46         0.01333845
  47         0.00210318
  48        -0.00937086
Sym=     9a  
Ene=    -0.0001
Spin= Alpha
Occup=    0.12025
   1        -0.00025654
   2        -0.09627266
   3        -0.04114813
   4        -0.50432839
   5         0.40787937
   6        -0.27125991
   7        -0.19509104
   8         0.10468734
   9        -0.03863643
  10        -0.00090168
  11        -0.00610447
  12        -0.01591913
  13         0.00235585
  14         0.00620479
  15        -0.00380672
  16         0.15939747
  17         0.11588914
  18         0.00796266
  19        -0.39095774
  20         0.22194227
  21         0.00800754
  22        -0.05546079
  23         0.01607978
  24        -0.01265162
  25         0.03082866
  26        -0.01435899
  27         0.02436365
  28        -0.00239535
  29         0.10355830
  30         0.02050474
  31        -0.01198999
  32         0.00862910
  33        -0.00427257
  34        -0.07264488
  35         0.01361638
  36        -0.01244726
  37         0.00880239
  38        -0.00660473
  39         0.26015006
  40         0.13232237
  41        -0.00732616
  42        -0.00831609
  43         0.02050537
  44        -0.28411771
  45        -0.00968043
  46         0.00295654
  47        -0.00129329
  48         0.00839642
Sym=     9a  
Ene=    -0.0001
Spin= Beta
Occup=    0.12025
   1        -0.00025654
   2        -0.09627266
   3        -0.04114813
   4        -0.50432839
   5         0.40787937
   6        -0.27125991
   7        -0.19509104
   8         0.10468734
   9        -0.03863643
  10        -0.00090168
  11        -0.00610447
  12        -0.01591913
  13         0.00235585
  14         0.00620479
  15        -0.00380672
  16         0.15939747
  17         0.11588914
  18         0.00796266
  19        -0.39095774
  20         0.22194227
  21         0.00800754
  22        -0.05546079
  23         0.01607978
  24        -0.01265162
  25         0.03082866
  26        -0.01435899
  27         0.02436365
  28        -0.00239535
  29         0.10355830
  30         0.02050474
  31        -0.01198999
  32         0.00862910
  33        -0.00427257
  34        -0.07264488
  35         0.01361638
  36        -0.01244726
  37         0.00880239
  38        -0.00660473
  39         0.26015006
  40         0.13232237
  41        -0.00732616
  42        -0.00831609
  43         0.02050537
  44        -0.28411771
  45        -0.00968043
  46         0.00295654
  47        -0.00129329
  48         0.00839642
Sym=    10a  
Ene=     0.1850
Spin= Alpha
Occup=    0.00000
   1         0.04847786
   2        -0.16176997
   3        -1.26316047
   4        -0.09624792
   5        -0.06752206
   6         0.18188960
   7        -0.19401139
   8        -0.06170301
   9         0.47978063
  10        -0.00961905
  11         0.00112403
  12        -0.00010871
  13         0.00588887
  14        -0.01694753
  15         0.04892937
  16        -0.02806898
  17        -1.14719751
  18        -0.18741278
  19        -0.00623926
  20        -0.15423220
  21        -0.35843577
  22        -0.08409397
  23        -0.10657975
  24         0.00561327
  25         0.00607573
  26        -0.01192076
  27        -0.01039466
  28         0.00146527
  29        -0.00342046
  30         1.24085813
  31        -0.00444235
  32        -0.01258398
  33         0.00914998
  34         0.01075682
  35         0.73263459
  36         0.00531644
  37         0.00715534
  38         0.00547592
  39         0.06079399
  40         0.90781364
  41        -0.01295616
  42         0.00723182
  43        -0.00298384
  44        -0.01292384
  45         0.53921194
  46         0.00276814
  47        -0.00299377
  48        -0.01094760
Sym=    10a  
Ene=     0.1850
Spin= Beta
Occup=    0.00000
   1         0.04847786
   2        -0.16176997
   3        -1.26316047
   4        -0.09624792
   5        -0.06752206
   6         0.18188960
   7        -0.19401139
   8        -0.06170301
   9         0.47978063
  10        -0.00961905
  11         0.00112403
  12        -0.00010871
  13         0.00588887
  14        -0.01694753
  15         0.04892937
  16        -0.02806898
  17        -1.14719751
  18        -0.18741278
  19        -0.00623926
  20        -0.15423220
  21        -0.35843577
  22        -0.08409397
  23        -0.10657975
  24         0.00561327
  25         0.00607573
  26        -0.01192076
  27        -0.01039466
  28         0.00146527
  29        -0.00342046
  30         1.24085813
  31        -0.00444235
  32        -0.01258398
  33         0.00914998
  34         0.01075682
  35         0.73263459
  36         0.00531644
  37         0.00715534
  38         0.00547592
  39         0.06079399
  40         0.90781364
  41        -0.01295616
  42         0.00723182
  43        -0.00298384
  44        -0.01292384
  45         0.53921194
  46         0.00276814
  47        -0.00299377
  48        -0.01094760
Sym=    11a  
Ene=     0.2226
Spin= Alpha
Occup=    0.00000
   1         0.04239172
   2        -0.13348555
   3        -1.27326481
   4         0.09118138
   5         0.14498080
   6         0.15041172
   7         0.18767044
   8         0.28820888
   9         0.28636518
  10         0.00898784
  11         0.00094016
  12        -0.00375240
  13         0.00557380
  14        -0.00764874
  15        -0.05528105
  16         0.10779986
  17         1.29938321
  18         0.14817544
  19         0.10456770
  20         0.04298946
  21         0.30677257
  22         0.21639892
  23         0.11493153
  24        -0.00933533
  25        -0.00847720
  26         0.01018787
  27         0.00035292
  28         0.00894450
  29         0.05135021
  30         0.35646928
  31        -0.00706106
  32        -0.00413041
  33        -0.00239522
  34         0.08719546
  35         1.51076359
  36         0.00844844
  37         0.01620468
  38         0.00856970
  39        -0.03969181
  40        -0.95434866
  41         0.00763985
  42        -0.00157871
  43        -0.00042585
  44        -0.03133395
  45        -1.01524192
  46        -0.00129632
  47         0.01471592
  48         0.00724078
Sym=    11a  
Ene=     0.2226
Spin= Beta
Occup=    0.00000
   1         0.04239172
   2        -0.13348555
   3        -1.27326481
   4         0.09118138
   5         0.14498080
   6         0.15041172
   7         0.18767044
   8         0.28820888
   9         0.28636518
  10         0.00898784
  11         0.00094016
  12        -0.00375240
  13         0.00557380
  14        -0.00764874
  15        -0.05528105
  16         0.10779986
  17         1.29938321
  18         0.14817544
  19         0.10456770
  20         0.04298946
  21         0.30677257
  22         0.21639892
  23         0.11493153
  24        -0.00933533
  25        -0.00847720
  26         0.01018787
  27         0.00035292
  28         0.00894450
  29         0.05135021
  30         0.35646928
  31        -0.00706106
  32        -0.00413041
  33        -0.00239522
  34         0.08719546
  35         1.51076359
  36         0.00844844
  37         0.01620468
  38         0.00856970