[Molden Format]
[N_Atoms]
                    6
[Atoms] (AU)
C1          1      6          -0.05066812      0.02772744     -1.21568957
C2          2      6          -0.33825538     -0.08589895      1.47384681
H3          3      1           1.15594564      1.39235215     -2.23466997
H4          4      1          -0.93263700     -1.40932247     -2.43458706
H5          5      1           1.82919970     -0.15253230      1.78841972
H6          6      1          -0.47264120      1.84538656      2.33853037
[5D]
[7F]
[9G]
[Charge] (Mulliken)
   0.0000000000000000     
   0.0000000000000000     
   0.0000000000000000     
   0.0000000000000000     
   0.0000000000000000     
   0.0000000000000000     
[GTO] (AU)
   1
   s   9
  6.665000000E+03  6.920001793E-04
  1.000000000E+03  5.329001381E-03
  2.280000000E+02  2.707700701E-02
  6.471000000E+01  1.017180264E-01
  2.106000000E+01  2.747400712E-01
  7.495000000E+00  4.485641162E-01
  2.797000000E+00  2.850740738E-01
  5.215000000E-01  1.520400394E-02
  1.596000000E-01 -3.191000827E-03
   s   9
  6.665000000E+03 -1.460000642E-04
  1.000000000E+03 -1.154000508E-03
  2.280000000E+02 -5.725002519E-03
  6.471000000E+01 -2.331201026E-02
  2.106000000E+01 -6.395502813E-02
  7.495000000E+00 -1.499810660E-01
  2.797000000E+00 -1.272620560E-01
  5.215000000E-01  5.445292395E-01
  1.596000000E-01  5.804962554E-01
   s   1
  1.596000000E-01  1.000000000E+00
   p   4
  9.439000000E+00  3.810902127E-02
  2.002000000E+00  2.094801169E-01
  5.456000000E-01  5.085572839E-01
  1.517000000E-01  4.688422617E-01
   p   1
  1.517000000E-01  1.000000000E+00
   d   1
  5.500000000E-01  1.000000000E+00
 
   2
   s   9
  6.665000000E+03  6.920001793E-04
  1.000000000E+03  5.329001381E-03
  2.280000000E+02  2.707700701E-02
  6.471000000E+01  1.017180264E-01
  2.106000000E+01  2.747400712E-01
  7.495000000E+00  4.485641162E-01
  2.797000000E+00  2.850740738E-01
  5.215000000E-01  1.520400394E-02
  1.596000000E-01 -3.191000827E-03
   s   9
  6.665000000E+03 -1.460000642E-04
  1.000000000E+03 -1.154000508E-03
  2.280000000E+02 -5.725002519E-03
  6.471000000E+01 -2.331201026E-02
  2.106000000E+01 -6.395502813E-02
  7.495000000E+00 -1.499810660E-01
  2.797000000E+00 -1.272620560E-01
  5.215000000E-01  5.445292395E-01
  1.596000000E-01  5.804962554E-01
   s   1
  1.596000000E-01  1.000000000E+00
   p   4
  9.439000000E+00  3.810902127E-02
  2.002000000E+00  2.094801169E-01
  5.456000000E-01  5.085572839E-01
  1.517000000E-01  4.688422617E-01
   p   1
  1.517000000E-01  1.000000000E+00
   d   1
  5.500000000E-01  1.000000000E+00
 
   3
   s   4
  1.301000000E+01  1.968498999E-02
  1.962000000E+00  1.379769298E-01
  4.446000000E-01  4.781477569E-01
  1.220000000E-01  5.012397451E-01
   s   1
  1.220000000E-01  1.000000000E+00
   p   1
  7.270000000E-01  1.000000000E+00
 
   4
   s   4
  1.301000000E+01  1.968498999E-02
  1.962000000E+00  1.379769298E-01
  4.446000000E-01  4.781477569E-01
  1.220000000E-01  5.012397451E-01
   s   1
  1.220000000E-01  1.000000000E+00
   p   1
  7.270000000E-01  1.000000000E+00
 
   5
   s   4
  1.301000000E+01  1.968498999E-02
  1.962000000E+00  1.379769298E-01
  4.446000000E-01  4.781477569E-01
  1.220000000E-01  5.012397451E-01
   s   1
  1.220000000E-01  1.000000000E+00
   p   1
  7.270000000E-01  1.000000000E+00
 
   6
   s   4
  1.301000000E+01  1.968498999E-02
  1.962000000E+00  1.379769298E-01
  4.446000000E-01  4.781477569E-01
  1.220000000E-01  5.012397451E-01
   s   1
  1.220000000E-01  1.000000000E+00
   p   1
  7.270000000E-01  1.000000000E+00
 
[MO]
Sym=     1a  
Ene=   -11.3450
Spin= Alpha
Occup=    2.00000
   1         0.72755989
   2         0.00089095
   3         0.00362176
   4        -0.00022240
   5        -0.00009043
   6         0.00229316
   7         0.00001844
   8         0.00000750
   9        -0.00019015
  10        -0.00000000
  11         0.00000000
  12         0.00000000
  13         0.00000000
  14        -0.00000000
  15         0.68267628
  16         0.00108536
  17         0.00337752
  18         0.00032138
  19         0.00015515
  20        -0.00246310
  21        -0.00002665
  22        -0.00001286
  23         0.00020424
  24        -0.00000000
  25        -0.00000000
  26         0.00000000
  27        -0.00000000
  28        -0.00000000
  29         0.00332905
  30        -0.00048346
  31        -0.00000000
  32        -0.00000000
  33         0.00000000
  34         0.00336895
  35        -0.00048926
  36         0.00000000
  37         0.00000000
  38         0.00000000
  39         0.00326059
  40        -0.00047352
  41        -0.00000000
  42        -0.00000000
  43         0.00000000
  44         0.00317692
  45        -0.00046137
  46         0.00000000
  47        -0.00000000
  48        -0.00000000
Sym=     2a  
Ene=   -11.3300
Spin= Alpha
Occup=    2.00000
   1        -0.68320203
   2         0.00353883
   3        -0.00376610
   4        -0.00024772
   5        -0.00008904
   6         0.00242077
   7         0.00002054
   8         0.00000738
   9        -0.00020073
  10         0.00000000
  11         0.00000000
  12         0.00000000
  13        -0.00000000
  14         0.00000000
  15         0.72817074
  16        -0.00350041
  17         0.00399134
  18        -0.00020355
  19        -0.00005229
  20         0.00223984
  21         0.00001688
  22         0.00000434
  23        -0.00018572
  24        -0.00000000
  25        -0.00000000
  26        -0.00000000
  27         0.00000000
  28         0.00000000
  29        -0.00244107
  30         0.00035451
  31         0.00000000
  32        -0.00000000
  33         0.00000000
  34        -0.00243756
  35         0.00035400
  36         0.00000000
  37         0.00000000
  38        -0.00000000
  39         0.00202794
  40        -0.00029451
  41         0.00000000
  42         0.00000000
  43         0.00000000
  44         0.00246339
  45        -0.00035775
  46        -0.00000000
  47        -0.00000000
  48        -0.00000000
Sym=     3a  
Ene=    -1.4635
Spin= Alpha
Occup=    2.00000
   1        -0.05325245
   2         0.41618527
   3        -0.03500275
   4         0.01514003
   5         0.00827005
   6         0.07804741
   7        -0.00125539
   8        -0.00068574
   9        -0.00647157
  10         0.00000000
  11        -0.00000000
  12         0.00000000
  13         0.00000000
  14         0.00000000
  15        -0.05243122
  16         0.40904005
  17        -0.03440228
  18         0.05435637
  19         0.03946717
  20        -0.08108710
  21        -0.00450715
  22        -0.00327256
  23         0.00672362
  24        -0.00000000
  25        -0.00000000
  26        -0.00000000
  27        -0.00000000
  28         0.00000000
  29         0.19020746
  30        -0.02762307
  31         0.00000000
  32         0.00000000
  33         0.00000000
  34         0.17028397
  35        -0.02472966
  36         0.00000000
  37         0.00000000
  38         0.00000000
  39         0.22598551
  40        -0.03281897
  41        -0.00000000
  42        -0.00000000
  43         0.00000000
  44         0.20015342
  45        -0.02906748
  46        -0.00000000
  47         0.00000000
  48         0.00000000
Sym=     4a  
Ene=    -1.0100
Spin= Alpha
Occup=    2.00000
   1         0.03098624
   2        -0.37570723
   3         0.03151159
   4         0.03195088
   5         0.06450681
   6         0.24963790
   7        -0.00264932
   8        -0.00534881
   9        -0.02069959
  10         0.00000000
  11         0.00000000
  12        -0.00000000
  13         0.00000000
  14         0.00000000
  15        -0.02827556
  16         0.31748310
  17        -0.02663880
  18         0.06995230
  19         0.10405009
  20         0.18971851
  21        -0.00580034
  22        -0.00862767
  23        -0.01573117
  24        -0.00000000
  25        -0.00000000
  26        -0.00000000
  27         0.00000000
  28        -0.00000000
  29        -0.23973009
  30         0.03481504
  31         0.00000000
  32        -0.00000000
  33        -0.00000000
  34        -0.33917979
  35         0.04925772
  36         0.00000000
  37         0.00000000
  38        -0.00000000
  39         0.22363961
  40        -0.03247829
  41         0.00000000
  42        -0.00000000
  43         0.00000000
  44         0.28332781
  45        -0.04114657
  46         0.00000000
  47         0.00000000
  48         0.00000000
Sym=     5a  
Ene=    -0.7522
Spin= Alpha
Occup=    2.00000
   1        -0.00088970
   2         0.01456214
   3        -0.00121979
   4         0.33717598
   5         0.41110411
   6        -0.16724654
   7        -0.02795812
   8        -0.03408812
   9         0.01386783
  10        -0.00000000
  11         0.00000000
  12        -0.00000000
  13         0.00000000
  14         0.00000000
  15         0.00476619
  16        -0.25179465
  17         0.02103742
  18         0.18435296
  19         0.23705099
  20         0.07717411
  21        -0.01528626
  22        -0.01965591
  23        -0.00639916
  24         0.00000000
  25        -0.00000000
  26         0.00000000
  27        -0.00000000
  28         0.00000000
  29         0.46328504
  30        -0.06728103
  31        -0.00000000
  32         0.00000000
  33         0.00000000
  34        -0.26274792
  35         0.03815783
  36         0.00000000
  37         0.00000000
  38         0.00000000
  39         0.04852507
  40        -0.00704710
  41        -0.00000000
  42        -0.00000000
  43         0.00000000
  44         0.05660651
  45        -0.00822074
  46         0.00000000
  47         0.00000000
  48         0.00000000
Sym=     6a  
Ene=    -0.6961
Spin= Alpha
Occup=    2.00000
   1         0.00122965
   2         0.03857006
   3        -0.00321257
   4        -0.30794246
   5         0.22262873
   6        -0.07031675
   7         0.02553412
   8        -0.01846003
   9         0.00583056
  10        -0.00000000
  11        -0.00000000
  12        -0.00000000
  13         0.00000000
  14        -0.00000000
  15         0.00174161
  16         0.05574449
  17        -0.00464324
  18        -0.45308241
  19         0.36795212
  20         0.03803075
  21         0.03756890
  22        -0.03051003
  23        -0.00315345
  24         0.00000000
  25        -0.00000000
  26         0.00000000
  27        -0.00000000
  28         0.00000000
  29         0.02585949
  30        -0.00375547
  31         0.00000000
  32         0.00000000
  33         0.00000000
  34         0.04260424
  35        -0.00618724
  36         0.00000000
  37         0.00000000
  38         0.00000000
  39        -0.39367185
  40         0.05717139
  41        -0.00000000
  42        -0.00000000
  43         0.00000000
  44         0.37103672
  45        -0.05388418
  46         0.00000000
  47         0.00000000
  48         0.00000000
Sym=     7a  
Ene=    -0.5799
Spin= Alpha
Occup=    2.00000
   1         0.00809469
   2        -0.15600809
   3         0.01306058
   4         0.00716679
   5        -0.24181427
   6        -0.50352831
   7        -0.00059426
   8         0.02005087
   9         0.04175180
  10         0.00000000
  11        -0.00000000
  12        -0.00000000
  13        -0.00000000
  14         0.00000000
  15         0.01017276
  16        -0.01849647
  17         0.00159528
  18         0.09722488
  19         0.03380206
  20         0.57018997
  21        -0.00806174
  22        -0.00280282
  23        -0.04727928
  24        -0.00000000
  25        -0.00000000
  26         0.00000000
  27        -0.00000000
  28         0.00000000
  29         0.00089128
  30        -0.00012944
  31         0.00000000
  32         0.00000000
  33        -0.00000000
  34         0.38930652
  35        -0.05653743
  36         0.00000000
  37        -0.00000000
  38        -0.00000000
  39         0.18654495
  40        -0.02709118
  41        -0.00000000
  42         0.00000000
  43        -0.00000000
  44         0.27670704
  45        -0.04018506
  46         0.00000000
  47         0.00000000
  48        -0.00000000
Sym=     8a  
Ene=    -0.4296
Spin= Alpha
Occup=    2.00000
   1        -0.00720673
   2         0.03611265
   3        -0.00305035
   4        -0.14721586
   5        -0.15979204
   6         0.07733894
   7         0.01220691
   8         0.01324971
   9        -0.00641283
  10         0.00000000
  11        -0.00000000
  12        -0.00000000
  13         0.00000000
  14         0.00000000
  15        -0.03362623
  16        -0.48591581
  17         0.04038066
  18         0.49330669
  19         0.65180453
  20        -0.34563225
  21        -0.04090424
  22        -0.05404663
  23         0.02865930
  24         0.00000000
  25        -0.00000000
  26         0.00000000
  27         0.00000000
  28        -0.00000000
  29        -0.36152488
  30         0.05250281
  31         0.00000000
  32        -0.00000000
  33        -0.00000000
  34         0.24753958
  35        -0.03594918
  36         0.00000000
  37         0.00000000
  38         0.00000000
  39         0.13222389
  40        -0.01920235
  41         0.00000000
  42        -0.00000000
  43         0.00000000
  44         0.16544282
  45        -0.02402660
  46        -0.00000000
  47        -0.00000000
  48         0.00000000
Sym=     9a  
Ene=    -0.3661
Spin= Alpha
Occup=    0.00000
   1         0.00148654
   2        -0.02172180
   3         0.00182032
   4        -0.81589636
   5         0.60364563
   6        -0.15270816
   7         0.06765288
   8        -0.05005337
   9         0.01266233
  10         0.00000000
  11        -0.00000000
  12        -0.00000000
  13        -0.00000000
  14         0.00000000
  15         0.00273380
  16         0.00591084
  17        -0.00047939
  18         0.27463110
  19        -0.19322695
  20         0.09175479
  21        -0.02277199
  22         0.01602208
  23        -0.00760817
  24         0.00000000
  25         0.00000000
  26        -0.00000000
  27        -0.00000000
  28        -0.00000000
  29        -0.02080227
  30         0.00302103
  31        -0.00000000
  32         0.00000000
  33        -0.00000000
  34         0.02062449
  35        -0.00299521
  36         0.00000000
  37        -0.00000000
  38         0.00000000
  39         0.40240878
  40        -0.05844022
  41         0.00000000
  42         0.00000000
  43         0.00000000
  44        -0.29805577
  45         0.04328545
  46         0.00000000
  47         0.00000000
  48        -0.00000000
Sym=    10a  
Ene=    -0.1674
Spin= Alpha
Occup=    0.00000
   1        -0.06140114
   2        -0.57233722
   3         0.04745175
   4         0.11243094
   5        -0.12007933
   6        -0.24615024
   7        -0.00932260
   8         0.00995679
   9         0.02041040
  10         0.00000000
  11         0.00000000
  12         0.00000000
  13        -0.00000000
  14         0.00000000
  15        -0.00366110
  16        -0.06013866
  17         0.00500020
  18        -0.93685086
  19         0.45470225
  20        -0.41109657
  21         0.07768224
  22        -0.03770321
  23         0.03408750
  24        -0.00000000
  25         0.00000000
  26        -0.00000000
  27         0.00000000
  28        -0.00000000
  29         0.17106359
  30        -0.02484288
  31         0.00000000
  32         0.00000000
  33        -0.00000000
  34         0.10806707
  35        -0.01569415
  36        -0.00000000
  37        -0.00000000
  38        -0.00000000
  39         1.26233017
  40        -0.18332316
  41        -0.00000000
  42         0.00000000
  43         0.00000000
  44        -0.51895049
  45         0.07536510
  46         0.00000000
  47        -0.00000000
  48        -0.00000000
Sym=    11a  
Ene=    -0.1483
Spin= Alpha
Occup=    0.00000
   1        -0.09861290
   2        -0.80069708
   3         0.06632020
   4        -0.41672382
   5        -0.37435759
   6        -0.17472855
   7         0.03455410
   8         0.03104116
   9         0.01448822
  10        -0.00000000
  11         0.00000000
  12         0.00000000
  13        -0.00000000
  14         0.00000000
  15        -0.04952051
  16        -0.40878022
  17         0.03386267
  18         0.12219642
  19        -0.63027457
  20        -0.75260746
  21        -0.01013234
  22         0.05226140
  23         0.06240506
  24        -0.00000000
  25         0.00000000
  26         0.00000000
  27        -0.00000000
  28        -0.00000000
  29         0.83074023
  30        -0.12064508
  31         0.00000000
  32         0.00000000
  33        -0.00000000
  34        -0.24805638
  35         0.03602424
  36        -0.00000000
  37        -0.00000000
  38        -0.00000000
  39         0.12381328
  40        -0.01798091
  41        -0.00000000
  42        -0.00000000
  43        -0.00000000
  44         1.13471020
  45        -0.16478943
  46         0.00000000
  47         0.00000000
  48         0.00000000
Sym=    12a  
Ene=    -0.1377
Spin= Alpha
Occup=    0.00000
   1        -0.15452771
   2        -1.26485331
   3         0.10477171
   4         0.13706251
   5         0.33757986
   6         0.72201664
   7        -0.01136501
   8        -0.02799161
   9        -0.05986851
  10        -0.00000000
  11        -0.00000000
  12        -0.00000000
  13        -0.00000000
  14         0.00000000
  15         0.03222210
  16         0.35887616
  17        -0.02978586
  18         0.20547929
  19         0.10632388
  20         0.04622105
  21        -0.01703803
  22        -0.00881621
  23        -0.00383258
  24        -0.00000000
  25        -0.00000000
  26        -0.00000000
  27        -0.00000000
  28         0.00000000
  29         0.65353766
  30        -0.09491066
  31         0.00000000
  32         0.00000000
  33        -0.00000000
  34         1.34314553
  35        -0.19505965
  36        -0.00000000
  37        -0.00000000
  38        -0.00000000
  39        -0.38783673
  40         0.05632398
  41         0.00000000
  42         0.00000000
  43        -0.00000000
  44        -0.30107764
  45         0.04372430
  46         0.00000000
  47        -0.00000000
  48        -0.00000000
Sym=    13a  
Ene=    -0.1262
Spin= Alpha
Occup=    0.00000
   1         0.02599190
   2         0.19461514
   3        -0.01610932
   4        -0.70482147
   5        -0.92321251
   6         0.57916789
   7         0.05844272
   8         0.07655137
   9        -0.04802371
  10        -0.00000000
  11         0.00000000
  12         0.00000000
  13        -0.00000000
  14        -0.00000000
  15        -0.02379390
  16        -0.15017012
  17         0.01241138
  18         0.08903668
  19         0.52689647
  20         0.65612080
  21        -0.00738279
  22        -0.04368945
  23        -0.05440453
  24         0.00000000
  25        -0.00000000
  26         0.00000000
  27         0.00000000
  28        -0.00000000
  29         1.13348977
  30        -0.16461219
  31        -0.00000000
  32        -0.00000000
  33         0.00000000
  34        -0.62601256
  35         0.09091330
  36        -0.00000000
  37        -0.00000000
  38         0.00000000
  39        -0.03777216
  40         0.00548550
  41         0.00000000
  42         0.00000000
  43        -0.00000000
  44        -0.57509315
  45         0.08351848
  46        -0.00000000
  47        -0.00000000
  48         0.00000000
Sym=    14a  
Ene=    -0.1222
Spin= Alpha
Occup=    0.00000
   1         0.07617166
   2         0.58658373
   3        -0.04856564
   4         0.08928682
   5         0.27734503
   6         0.97709899
   7        -0.00740353
   8        -0.02299703
   9        -0.08101955
  10         0.00000000
  11        -0.00000000
  12        -0.00000000
  13        -0.00000000
  14         0.00000000
  15        -0.18919082
  16        -1.52735733
  17         0.12650256
  18        -0.48466508
  19        -0.43704556
  20         0.56203849
  21         0.04018769
  22         0.03623915
  23        -0.04660337
  24        -0.00000000
  25         0.00000000
  26        -0.00000000
  27        -0.00000000
  28        -0.00000000
  29        -0.08286039
  30         0.01203348
  31         0.00000000
  32         0.00000000
  33        -0.00000000
  34         0.43467979
  35        -0.06312681
  36        -0.00000000
  37        -0.00000000
  38        -0.00000000
  39         0.61663764
  40        -0.08955182
  41        -0.00000000
  42         0.00000000
  43         0.00000000
  44         0.58177457
  45        -0.08448879
  46         0.00000000
  47        -0.00000000
  48        -0.00000000
Sym=    15a  
Ene=     3.6875
Spin= Alpha
Occup=    0.00000
   1         0.00913739
   2         0.02794627
   3        -0.22463873
   4        -0.11257745
   5        -0.15890140
   6        -0.01631923
   7         1.38162045
   8         1.88719006
   9        -0.01445604
  10        -0.04107732
  11        -0.16434600
  12        -0.21024939
  13         0.03836855
  14         0.02294616
  15         0.03094436
  16         0.09085978
  17        -0.23745975
  18         0.04122664
  19         0.11044420
  20         0.02715947
  21        -0.16890598
  22        -0.75703042
  23        -0.36819734
  24         0.03215096
  25         0.03128671
  26         0.01197545
  27         0.06152851
  28        -0.00983176
  29         0.38504083
  30        -2.61615748
  31         0.14017060
  32         0.15038838
  33        -0.16570570
  34        -0.37106523
  35         2.52669589
  36         0.09469865
  37         0.16192905
  38         0.19326339
  39         0.14576980
  40        -0.26458587
  41         0.02123109
  42         0.02430901
  43         0.04165800
  44         0.02843577
  45         0.65053338
  46         0.01945363
  47        -0.06561493
  48        -0.02415602
Sym=    16a  
Ene=     3.7454
Spin= Alpha
Occup=    0.00000
   1         0.06238553
   2         0.24536426
   3        -0.90278424
   4        -0.01695262
   5         0.04443713
   6         0.01451920
   7         0.05193947
   8        -0.08476547
   9         0.11454858
  10        -0.03647718
  11        -0.02157959
  12        -0.08915288
  13         0.02046893
  14        -0.04404852
  15        -0.24636816
  16        -0.90887606
  17         2.76069902
  18        -0.02740761
  19        -0.15863911
  20        -0.01788335
  21        -0.03753666
  22         1.43085313
  23         0.45600184
  24        -0.05106096
  25        -0.00678981
  26         0.15498066
  27        -0.19077589
  28        -0.01189276
  29         0.03945134
  30         0.17539976
  31        -0.01039405
  32        -0.00452395
  33         0.00978495
  34        -0.25302988
  35         0.84429904
  36         0.03127370
  37         0.07646247
  38         0.06036906
  39        -0.15006805
  40         0.26249994
  41         0.01701486
  42        -0.06377460
  43        -0.00891823
  44         0.66037518
  45        -3.10650587
  46        -0.04160891
  47         0.32741815
  48         0.17279990
Sym=    17a  
Ene=     3.7644
Spin= Alpha
Occup=    0.00000
   1         0.20631014
   2         0.76380933
   3        -2.09646838
   4         0.02073565
   5        -0.02125778
   6        -0.13640638
   7        -0.20569807
   8         0.05894429
   9         1.70112465
  10         0.07069365
  11         0.02064435
  12        -0.01588175
  13         0.06091672
  14        -0.23416496
  15         0.15530347
  16         0.54633404
  17        -2.14291822
  18         0.05846673
  19         0.05196403
  20         0.01043724
  21        -0.33025509
  22        -0.21579195
  23         0.52043242
  24         0.01070742
  25        -0.00341766
  26        -0.01934203
  27        -0.02692543
  28         0.00431202
  29        -0.53227076
  30         2.02040275
  31        -0.15899652
  32        -0.19681476
  33         0.08793895
  34        -0.50495248
  35         1.99044202
  36         0.12843483
  37         0.19287519
  38         0.11461773
  39        -0.15096304
  40         0.50153995
  41        -0.09618724
  42         0.02109537
  43        -0.01793257
  44        -0.05904667
  45         0.23974531
  46         0.02859178
  47        -0.05629409
  48        -0.03417105
Sym=    18a  
Ene=     3.7776
Spin= Alpha
Occup=    0.00000
   1         0.05826040
   2         0.23128542
   3        -1.34333682
   4         0.01910091
   5         0.00738033
   6        -0.02430991
   7        -0.17394910
   8        -0.17770731
   9         0.04038988
  10        -0.05666887
  11        -0.02216120
  12         0.00376667
  13         0.04323402
  14        -0.07364495
  15        -0.26327306
  16        -0.97353045
  17         2.80740239
  18        -0.19319865
  19        -0.02642894
  20         0.05512847
  21         1.50399092
  22        -0.08252539
  23        -0.22208803
  24        -0.06434381
  25         0.03312765
  26        -0.01468210
  27         0.25019209
  28         0.00422967
  29        -0.21413362
  30         0.97955981
  31        -0.06269943
  32        -0.05488548
  33         0.04704905
  34        -0.05638480
  35         0.29443028
  36         0.04187766
  37         0.04438565
  38         0.03314946
  39         0.72475317
  40        -3.08926541
  41         0.35471765
  42        -0.02298455
  43         0.06441054
  44        -0.20394873
  45         0.53867145
  46        -0.06807486
  47        -0.03477420
  48        -0.00242293
Sym=    19a  
Ene=     3.9237
Spin= Alpha
Occup=    0.00000
   1        -0.28706745
   2        -1.01241413
   3         5.20925860
   4         0.01374712
   5         0.00559948
   6        -0.25671752
   7        -0.41554036
   8        -0.20280876
   9         3.86456484
  10         0.35302343
  11        -0.07574844
  12        -0.04606495
  13         0.01983455
  14        -0.00584661
  15         0.24386381
  16         0.81009383
  17        -4.83702249
  18        -0.00040055
  19        -0.00668651
  20        -0.27776727
  21        -0.11270274
  22         0.22618610
  23         3.79341996
  24        -0.40441821
  25         0.09634138
  26         0.09145839
  27         0.00969288
  28        -0.00626730
  29         0.23028419
  30         0.36336332
  31        -0.00196779
  32         0.00072748
  33        -0.03969794
  34         0.16811000
  35         0.35458213
  36         0.02115820
  37         0.03268846
  38        -0.01858779
  39         0.27284193
  40        -0.78064310
  41         0.12159568
  42        -0.01147468
  43        -0.06273668
  44        -0.03878901
  45        -0.65633151
  46        -0.01779750
  47         0.11570216
  48        -0.02764351
Sym=    20a  
Ene=     4.2626
Spin= Alpha
Occup=    0.00000
   1        -0.00231354
   2        -0.00046154
   3        -0.27232663
   4         0.33310372
   5        -0.18443711
   6        -0.11317207
   7        -1.01384567
   8         0.52474153
   9         0.28635807
  10        -0.00015770
  11        -0.17691866
  12         0.10477361
  13        -0.05483498
  14        -0.01998122
  15        -0.03020276
  16        -0.07743950
  17         0.06349543
  18        -0.55203908
  19         0.36002795
  20         0.04591483
  21         1.81671253
  22        -1.23201119
  23        -0.19164247
  24        -0.08981799
  25        -0.02312041
  26        -0.03907542
  27         0.15970986
  28         0.01333932
  29         0.21682351
  30         0.03700983
  31         0.00663750
  32        -0.04295610
  33         0.03576104
  34         0.11990502
  35        -0.05594262
  36         0.06145417
  37        -0.03051157
  38         0.02036678
  39        -1.08498704
  40         0.18740877
  41         0.23215423
  42         0.05037623
  43         0.13946089
  44         0.75546062
  45        -0.00291545
  46        -0.05836129
  47        -0.14248795
  48        -0.16052270
Sym=    21a  
Ene=     4.3294
Spin= Alpha
Occup=    0.00000
   1         0.03349815
   2         0.09735794
   3        -1.07739274
   4        -0.07777217
   5         0.00819191
   6        -0.57016700
   7         0.41121283
   8         0.31459043
   9         1.18629042
  10        -0.08576713
  11         0.12838761
  12         0.04577325
  13        -0.00230221
  14        -0.04855192
  15        -0.02389294
  16        -0.16074226
  17        -0.47084431
  18         0.25020930
  19         0.10065811
  20         0.60465041
  21        -0.82512123
  22        -0.60046341
  23        -1.30877797
  24        -0.01252970
  25         0.00447137
  26        -0.02897299
  27        -0.04783820
  28         0.03005347
  29         0.42333507
  30        -0.09924795
  31        -0.09067319
  32        -0.06662051
  33         0.06636817
  34         0.78558070
  35        -0.17638920
  36         0.00453023
  37         0.05946858
  38         0.08710566
  39         0.51207085
  40        -0.07385523
  41        -0.12225139
  42         0.04475759
  43         0.04507405
  44         0.67090938
  45        -0.17767301
  46         0.07183305
  47        -0.07907964
  48        -0.01947352
Sym=    22a  
Ene=     4.4376
Spin= Alpha
Occup=    0.00000
   1         0.03882035
   2         0.17768997
   3        -0.50892520
   4         0.24008981
   5         0.51286324
   6        -0.14623130
   7        -1.27354158
   8        -2.11450376
   9         0.42086601
  10        -0.00308465
  11        -0.01460516
  12         0.01432366
  13         0.01341020
  14        -0.01015315
  15         0.08391413
  16         0.46404910
  17        -0.74254226
  18        -0.14004222
  19        -0.31385948
  20         0.18628341
  21         0.51555684
  22         1.15970321
  23        -0.22605630
  24        -0.01021035
  25         0.05698384
  26        -0.05879348
  27         0.04441275
  28         0.03084617
  29         1.24144070
  30         0.19498011
  31        -0.11191282
  32        -0.14358972
  33         0.10993272
  34        -0.82754666
  35        -0.04781112
  36        -0.07257953
  37        -0.08344789
  38        -0.05202883