[Molden Format]
[N_Atoms]
                   13
[Atoms] (AU)
C1          1      6          -1.93916136      2.14413995      0.00000000
C2          2      6           0.69332162      2.24654421      0.00000000
C3          3      6           2.03633108     -0.02014448      0.00000000
H4          4      1           1.67142496      4.04412729      0.00000000
N5          5      7          -3.13237223     -0.12929506      0.00000000
H6          6      1          -3.03425765      3.87097169      0.00000000
N7          7      7           0.77465543     -2.25678653      0.00000000
H8          8      1           4.08114703     -0.00156847      0.00000000
C9          9      6          -1.79493746     -2.32500564      0.00000000
C10        10      6          -3.13796582     -4.80801128      0.00000000
H11        11      1          -5.21821413     -4.52647988      0.00000000
H12        12      1          -2.60540320     -5.90146351      1.70944625
H13        13      1          -2.60540320     -5.90146351     -1.70944625
[Charge] (Mulliken)
   0.0000000000000000     
   0.0000000000000000     
   0.0000000000000000     
   0.0000000000000000     
   0.0000000000000000     
   0.0000000000000000     
   0.0000000000000000     
   0.0000000000000000     
   0.0000000000000000     
   0.0000000000000000     
   0.0000000000000000     
   0.0000000000000000     
   0.0000000000000000     
[GTO] (AU)
   1
   s   6
  3.047524880E+03  1.834737132E-03
  4.573695180E+02  1.403732281E-02
  1.039486850E+02  6.884262227E-02
  2.921015530E+01  2.321844432E-01
  9.286662960E+00  4.679413484E-01
  3.163926960E+00  3.623119853E-01
   s   3
  7.868272350E+00 -1.193324198E-01
  1.881288540E+00 -1.608541517E-01
  5.442492580E-01  1.143456438E+00
   s   1
  1.687144782E-01  1.000000000E+00
   p   3
  7.868272350E+00  6.899906659E-02
  1.881288540E+00  3.164239610E-01
  5.442492580E-01  7.443082909E-01
   p   1
  1.687144782E-01  1.000000000E+00
   d   1
  8.000000000E-01  1.000000000E+00
 
   2
   s   6
  3.047524880E+03  1.834737132E-03
  4.573695180E+02  1.403732281E-02
  1.039486850E+02  6.884262227E-02
  2.921015530E+01  2.321844432E-01
  9.286662960E+00  4.679413484E-01
  3.163926960E+00  3.623119853E-01
   s   3
  7.868272350E+00 -1.193324198E-01
  1.881288540E+00 -1.608541517E-01
  5.442492580E-01  1.143456438E+00
   s   1
  1.687144782E-01  1.000000000E+00
   p   3
  7.868272350E+00  6.899906659E-02
  1.881288540E+00  3.164239610E-01
  5.442492580E-01  7.443082909E-01
   p   1
  1.687144782E-01  1.000000000E+00
   d   1
  8.000000000E-01  1.000000000E+00
 
   3
   s   6
  3.047524880E+03  1.834737132E-03
  4.573695180E+02  1.403732281E-02
  1.039486850E+02  6.884262227E-02
  2.921015530E+01  2.321844432E-01
  9.286662960E+00  4.679413484E-01
  3.163926960E+00  3.623119853E-01
   s   3
  7.868272350E+00 -1.193324198E-01
  1.881288540E+00 -1.608541517E-01
  5.442492580E-01  1.143456438E+00
   s   1
  1.687144782E-01  1.000000000E+00
   p   3
  7.868272350E+00  6.899906659E-02
  1.881288540E+00  3.164239610E-01
  5.442492580E-01  7.443082909E-01
   p   1
  1.687144782E-01  1.000000000E+00
   d   1
  8.000000000E-01  1.000000000E+00
 
   4
   s   3
  1.873113696E+01  3.349460434E-02
  2.825394365E+00  2.347269535E-01
  6.401216923E-01  8.137573261E-01
   s   1
  1.612777588E-01  1.000000000E+00
 
   5
   s   6
  4.173511460E+03  1.834772160E-03
  6.274579110E+02  1.399462700E-02
  1.429020930E+02  6.858655181E-02
  4.023432930E+01  2.322408730E-01
  1.282021290E+01  4.690699481E-01
  4.390437010E+00  3.604551991E-01
   s   3
  1.162636186E+01 -1.149611817E-01
  2.716279807E+00 -1.691174786E-01
  7.722183966E-01  1.145851947E+00
   s   1
  2.120314975E-01  1.000000000E+00
   p   3
  1.162636186E+01  6.757974388E-02
  2.716279807E+00  3.239072959E-01
  7.722183966E-01  7.408951398E-01
   p   1
  2.120314975E-01  1.000000000E+00
   d   1
  8.000000000E-01  1.000000000E+00
 
   6
   s   3
  1.873113696E+01  3.349460434E-02
  2.825394365E+00  2.347269535E-01
  6.401216923E-01  8.137573261E-01
   s   1
  1.612777588E-01  1.000000000E+00
 
   7
   s   6
  4.173511460E+03  1.834772160E-03
  6.274579110E+02  1.399462700E-02
  1.429020930E+02  6.858655181E-02
  4.023432930E+01  2.322408730E-01
  1.282021290E+01  4.690699481E-01
  4.390437010E+00  3.604551991E-01
   s   3
  1.162636186E+01 -1.149611817E-01
  2.716279807E+00 -1.691174786E-01
  7.722183966E-01  1.145851947E+00
   s   1
  2.120314975E-01  1.000000000E+00
   p   3
  1.162636186E+01  6.757974388E-02
  2.716279807E+00  3.239072959E-01
  7.722183966E-01  7.408951398E-01
   p   1
  2.120314975E-01  1.000000000E+00
   d   1
  8.000000000E-01  1.000000000E+00
 
   8
   s   3
  1.873113696E+01  3.349460434E-02
  2.825394365E+00  2.347269535E-01
  6.401216923E-01  8.137573261E-01
   s   1
  1.612777588E-01  1.000000000E+00
 
   9
   s   6
  3.047524880E+03  1.834737132E-03
  4.573695180E+02  1.403732281E-02
  1.039486850E+02  6.884262227E-02
  2.921015530E+01  2.321844432E-01
  9.286662960E+00  4.679413484E-01
  3.163926960E+00  3.623119853E-01
   s   3
  7.868272350E+00 -1.193324198E-01
  1.881288540E+00 -1.608541517E-01
  5.442492580E-01  1.143456438E+00
   s   1
  1.687144782E-01  1.000000000E+00
   p   3
  7.868272350E+00  6.899906659E-02
  1.881288540E+00  3.164239610E-01
  5.442492580E-01  7.443082909E-01
   p   1
  1.687144782E-01  1.000000000E+00
   d   1
  8.000000000E-01  1.000000000E+00
 
  10
   s   6
  3.047524880E+03  1.834737132E-03
  4.573695180E+02  1.403732281E-02
  1.039486850E+02  6.884262227E-02
  2.921015530E+01  2.321844432E-01
  9.286662960E+00  4.679413484E-01
  3.163926960E+00  3.623119853E-01
   s   3
  7.868272350E+00 -1.193324198E-01
  1.881288540E+00 -1.608541517E-01
  5.442492580E-01  1.143456438E+00
   s   1
  1.687144782E-01  1.000000000E+00
   p   3
  7.868272350E+00  6.899906659E-02
  1.881288540E+00  3.164239610E-01
  5.442492580E-01  7.443082909E-01
   p   1
  1.687144782E-01  1.000000000E+00
   d   1
  8.000000000E-01  1.000000000E+00
 
  11
   s   3
  1.873113696E+01  3.349460434E-02
  2.825394365E+00  2.347269535E-01
  6.401216923E-01  8.137573261E-01
   s   1
  1.612777588E-01  1.000000000E+00
 
  12
   s   3
  1.873113696E+01  3.349460434E-02
  2.825394365E+00  2.347269535E-01
  6.401216923E-01  8.137573261E-01
   s   1
  1.612777588E-01  1.000000000E+00
 
  13
   s   3
  1.873113696E+01  3.349460434E-02
  2.825394365E+00  2.347269535E-01
  6.401216923E-01  8.137573261E-01
   s   1
  1.612777588E-01  1.000000000E+00
 
[MO]
Sym=     1a  
Ene=   -15.6420
Spin= Alpha
Occup=    2.00000
   1         0.00082792
   2         0.00074968
   3         0.00081694
   4        -0.00043596
   5        -0.00096842
   6         0.00000000
   7        -0.00027226
   8        -0.00060478
   9        -0.00000000
  10        -0.00000000
  11        -0.00000000
  12        -0.00000000
  13         0.00000000
  14        -0.00000000
  15         0.00000000
  16         0.00003404
  17         0.00015061
  18         0.00016696
  19        -0.00012806
  20        -0.00023506
  21         0.00000000
  22        -0.00007997
  23        -0.00014679
  24        -0.00000000
  25         0.00000000
  26        -0.00000000
  27        -0.00000000
  28         0.00000000
  29         0.00000000
  30        -0.00000000
  31         0.00082671
  32         0.00074903
  33         0.00081624
  34        -0.00057625
  35        -0.00089106
  36         0.00000000
  37        -0.00035987
  38        -0.00055647
  39        -0.00000000
  40         0.00000000
  41        -0.00000000
  42         0.00000000
  43        -0.00000000
  44        -0.00000000
  45         0.00000000
  46         0.00000456
  47         0.00000509
  48         0.70336193
  49         0.01415427
  50         0.00140561
  51         0.00014936
  52        -0.00005836
  53        -0.00000000
  54         0.00008668
  55        -0.00003387
  56         0.00000000
  57        -0.00000000
  58        -0.00000000
  59        -0.00000000
  60        -0.00000000
  61         0.00000000
  62        -0.00000000
  63         0.00010607
  64         0.00011844
  65         0.70302268
  66         0.01414748
  67         0.00140498
  68        -0.00013014
  69         0.00009383
  70        -0.00000000
  71        -0.00007553
  72         0.00005445
  73         0.00000000
  74         0.00000000
  75        -0.00000000
  76         0.00000000
  77         0.00000000
  78         0.00000000
  79         0.00000000
  80         0.00010591
  81         0.00011825
  82         0.00150591
  83         0.00142570
  84         0.00155508
  85         0.00049472
  86         0.00090873
  87        -0.00000000
  88         0.00030895
  89         0.00056750
  90         0.00000000
  91        -0.00000000
  92         0.00000000
  93        -0.00000000
  94        -0.00000000
  95        -0.00000000
  96         0.00000000
  97        -0.00001631
  98         0.00011221
  99         0.00012528
 100         0.00010006
 101         0.00018378
 102         0.00000000
 103         0.00006248
 104         0.00011477
 105        -0.00000000
 106        -0.00000000
 107         0.00000000
 108        -0.00000000
 109        -0.00000000
 110         0.00000000
 111        -0.00000000
 112         0.00003634
 113         0.00004058
 114         0.00002539
 115         0.00002834
 116         0.00002539
 117         0.00002834
Sym=     2a  
Ene=   -15.6410
Spin= Alpha
Occup=    2.00000
   1        -0.00072212
   2        -0.00068310
   3        -0.00074508
   4         0.00050722
   5         0.00085314
   6        -0.00000000
   7         0.00031676
   8         0.00053279
   9         0.00000000
  10         0.00000000
  11         0.00000000
  12        -0.00000000
  13         0.00000000
  14         0.00000000
  15        -0.00000000
  16        -0.00000003
  17        -0.00000003
  18        -0.00000003
  19         0.00012580
  20        -0.00006844
  21        -0.00000000
  22         0.00007856
  23        -0.00004274
  24         0.00000000
  25        -0.00000000
  26        -0.00000000
  27        -0.00000000
  28         0.00000000
  29        -0.00000000
  30         0.00000000
  31         0.00072160
  32         0.00068310
  33         0.00074509
  34        -0.00044115
  35        -0.00088921
  36         0.00000000
  37        -0.00027550
  38        -0.00055531
  39         0.00000000
  40         0.00000000
  41        -0.00000000
  42         0.00000000
  43        -0.00000000
  44         0.00000000
  45        -0.00000000
  46        -0.00000000
  47        -0.00000000
  48        -0.70313117
  49        -0.01401670
  50        -0.00126560
  51         0.00009082
  52        -0.00006046
  53         0.00000000
  54         0.00005270
  55        -0.00003509
  56         0.00000000
  57         0.00000000
  58         0.00000000
  59         0.00000000
  60        -0.00000000
  61        -0.00000000
  62         0.00000000
  63        -0.00010425
  64        -0.00011640
  65         0.70347045
  66         0.01402351
  67         0.00126626
  68         0.00009996
  69        -0.00004341
  70        -0.00000000
  71         0.00005801
  72        -0.00002519
  73        -0.00000000
  74         0.00000000
  75         0.00000000
  76         0.00000000
  77        -0.00000000
  78        -0.00000000
  79         0.00000000
  80         0.00010419
  81         0.00011633
  82         0.00000151
  83         0.00000074
  84         0.00000079
  85         0.00155077
  86        -0.00084378
  87         0.00000000
  88         0.00096845
  89        -0.00052694
  90        -0.00000000
  91         0.00000000
  92         0.00000000
  93         0.00000000
  94        -0.00000000
  95         0.00000000
  96        -0.00000000
  97        -0.00000008
  98         0.00000058
  99         0.00000065
 100         0.00010316
 101        -0.00005471
 102         0.00000000
 103         0.00006442
 104        -0.00003417
 105         0.00000000
 106         0.00000000
 107         0.00000000
 108         0.00000000
 109        -0.00000000
 110        -0.00000000
 111         0.00000000
 112        -0.00003282
 113        -0.00003665
 114         0.00001481
 115         0.00001653
 116         0.00001481
 117         0.00001653
Sym=     3a  
Ene=   -11.3520
Spin= Alpha
Occup=    2.00000
   1         0.49879553
   2         0.01049159
   3         0.00100404
   4         0.00182567
   5        -0.00006658
   6        -0.00000000
   7         0.00114013
   8        -0.00004158
   9        -0.00000000
  10         0.00000000
  11         0.00000000
  12         0.00000000
  13        -0.00000000
  14         0.00000000
  15        -0.00000000
  16         0.69711253
  17         0.01456202
  18         0.00129086
  19        -0.00059689
  20        -0.00109350
  21         0.00000000
  22        -0.00037275
  23        -0.00068289
  24         0.00000000
  25         0.00000000
  26         0.00000000
  27         0.00000000
  28         0.00000000
  29         0.00000000
  30         0.00000000
  31         0.49821330
  32         0.01048058
  33         0.00100425
  34        -0.00104690
  35         0.00149701
  36        -0.00000000
  37        -0.00065379
  38         0.00093488
  39        -0.00000000
  40         0.00000000
  41         0.00000000
  42         0.00000000
  43        -0.00000000
  44        -0.00000000
  45         0.00000000
  46         0.00158840
  47         0.00177353
  48        -0.00202436
  49         0.00120056
  50         0.00129908
  51         0.00099359
  52         0.00122550
  53         0.00000000
  54         0.00057662
  55         0.00071121
  56         0.00000000
  57         0.00000000
  58         0.00000000
  59         0.00000000
  60        -0.00000000
  61        -0.00000000
  62         0.00000000
  63         0.00113808
  64         0.00127072
  65        -0.00202126
  66         0.00119888
  67         0.00129727
  68         0.00048866
  69         0.00149763
  70         0.00000000
  71         0.00028359
  72         0.00086914
  73         0.00000000
  74        -0.00000000
  75        -0.00000000
  76        -0.00000000
  77        -0.00000000
  78         0.00000000
  79         0.00000000
  80         0.00113690
  81         0.00126940
  82         0.05167281
  83         0.00118537
  84         0.00021367
  85         0.00023859
  86         0.00043864
  87        -0.00000000
  88         0.00014900
  89         0.00027393
  90         0.00000000
  91         0.00000000
  92         0.00000000
  93         0.00000000
  94         0.00000000
  95         0.00000000
  96         0.00000000
  97        -0.01768851
  98        -0.00026379
  99         0.00008493
 100         0.00005173
 101         0.00009555
 102        -0.00000000
 103         0.00003230
 104         0.00005967
 105         0.00000000
 106         0.00000000
 107        -0.00000000
 108         0.00000000
 109        -0.00000000
 110        -0.00000000
 111         0.00000000
 112        -0.00002235
 113        -0.00002496
 114        -0.00002157
 115        -0.00002408
 116        -0.00002157
 117        -0.00002408
Sym=     4a  
Ene=   -11.3450
Spin= Alpha
Occup=    2.00000
   1        -0.02348000
   2        -0.00030632
   3         0.00016155
   4         0.00000168
   5        -0.00028692
   6         0.00000000
   7         0.00000105
   8        -0.00017918
   9        -0.00000000
  10        -0.00000000
  11         0.00000000
  12         0.00000000
  13         0.00000000
  14         0.00000000
  15         0.00000000
  16        -0.00433841
  17        -0.00010104
  18        -0.00001962
  19        -0.00002983
  20        -0.00005527
  21         0.00000000
  22        -0.00001863
  23        -0.00003451
  24        -0.00000000
  25         0.00000000
  26        -0.00000000
  27        -0.00000000
  28         0.00000000
  29         0.00000000
  30         0.00000000
  31        -0.02338337
  32        -0.00030444
  33         0.00016158
  34        -0.00024201
  35        -0.00015447
  36         0.00000000
  37        -0.00015114
  38        -0.00009647
  39        -0.00000000
  40         0.00000000
  41        -0.00000000
  42         0.00000000
  43        -0.00000000
  44         0.00000000
  45         0.00000000
  46        -0.00001912
  47        -0.00002135
  48        -0.00229219
  49         0.00144266
  50         0.00155837
  51         0.00103893
  52        -0.00197504
  53        -0.00000000
  54         0.00060294
  55        -0.00114621
  56         0.00000000
  57        -0.00000000
  58         0.00000000
  59        -0.00000000
  60        -0.00000000
  61         0.00000000
  62         0.00000000
  63        -0.00004421
  64        -0.00004937
  65        -0.00229570
  66         0.00144450
  67         0.00156036
  68        -0.00222519
  69        -0.00019971
  70        -0.00000000
  71        -0.00129138
  72        -0.00011590
  73         0.00000000
  74         0.00000000
  75        -0.00000000
  76        -0.00000000
  77         0.00000000
  78        -0.00000000
  79         0.00000000
  80        -0.00004403
  81        -0.00004916
  82         0.73559354
  83         0.01452401
  84         0.00042485
  85        -0.00063371
  86        -0.00117253
  87        -0.00000000
  88        -0.00039575
  89        -0.00073225
  90         0.00000000
  91        -0.00000000
  92         0.00000000
  93         0.00000000
  94        -0.00000000
  95        -0.00000000
  96        -0.00000000
  97         0.66745351
  98         0.01335418
  99         0.00058096
 100         0.00069608
 101         0.00128587
 102         0.00000000
 103         0.00043470
 104         0.00080302
 105         0.00000000
 106        -0.00000000
 107         0.00000000
 108        -0.00000000
 109        -0.00000000
 110         0.00000000
 111        -0.00000000
 112         0.00141226
 113         0.00157686
 114         0.00141813
 115         0.00158342
 116         0.00141813
 117         0.00158342
Sym=     5a  
Ene=   -11.3400
Spin= Alpha
Occup=    2.00000
   1        -0.70328229
   2        -0.01291223
   3         0.00067801
   4         0.00021791
   5        -0.00011761
   6        -0.00000000
   7         0.00013608
   8        -0.00007345
   9        -0.00000000
  10        -0.00000000
  11        -0.00000000
  12        -0.00000000
  13         0.00000000
  14         0.00000000
  15        -0.00000000
  16         0.00032131
  17         0.00000627
  18         0.00000010
  19         0.00251998
  20        -0.00137213
  21         0.00000000
  22         0.00157373
  23        -0.00085689
  24         0.00000000
  25         0.00000000
  26        -0.00000000
  27        -0.00000000
  28         0.00000000
  29         0.00000000
  30         0.00000000
  31         0.70364109
  32         0.01291995
  33        -0.00067710
  34         0.00021612
  35        -0.00011781
  36        -0.00000000
  37         0.00013497
  38        -0.00007357
  39        -0.00000000
  40         0.00000000
  41         0.00000000
  42         0.00000000
  43        -0.00000000
  44        -0.00000000
  45        -0.00000000
  46         0.00000057
  47         0.00000064
  48         0.00208604
  49        -0.00131423
  50        -0.00141960
  51        -0.00084004
  52        -0.00174198
  53         0.00000000
  54        -0.00048752
  55        -0.00101095
  56         0.00000000
  57         0.00000000
  58         0.00000000
  59         0.00000000
  60        -0.00000000
  61        -0.00000000
  62         0.00000000
  63        -0.00135636
  64        -0.00151444
  65        -0.00208606
  66         0.00131459
  67         0.00141998
  68         0.00100655
  69         0.00165160
  70         0.00000000
  71         0.00058414
  72         0.00095850
  73        -0.00000000
  74         0.00000000
  75        -0.00000000
  76        -0.00000000
  77         0.00000000
  78         0.00000000
  79        -0.00000000
  80         0.00135705
  81         0.00151521
  82         0.00006390
  83         0.00000113
  84        -0.00000011
  85         0.00022894
  86        -0.00012396
  87        -0.00000000
  88         0.00014297
  89        -0.00007741
  90         0.00000000
  91        -0.00000000
  92        -0.00000000
  93        -0.00000000
  94        -0.00000000
  95         0.00000000
  96        -0.00000000
  97        -0.00015768
  98        -0.00000283
  99         0.00000022
 100         0.00000076
 101        -0.00000023
 102        -0.00000000
 103         0.00000048
 104        -0.00000014
 105        -0.00000000
 106        -0.00000000
 107        -0.00000000
 108        -0.00000000
 109        -0.00000000
 110        -0.00000000
 111         0.00000000
 112         0.00000018
 113         0.00000020
 114        -0.00000043
 115        -0.00000048
 116        -0.00000043
 117        -0.00000048
Sym=     6a  
Ene=   -11.3350
Spin= Alpha
Occup=    2.00000
   1         0.01522321
   2         0.00022857
   3        -0.00007137
   4         0.00009350
   5         0.00025904
   6         0.00000000
   7         0.00005839
   8         0.00016177
   9         0.00000000
  10         0.00000000
  11         0.00000000
  12         0.00000000
  13        -0.00000000
  14        -0.00000000
  15        -0.00000000
  16         0.04638223
  17         0.00085329
  18        -0.00004281
  19         0.00003608
  20         0.00006545
  21        -0.00000000
  22         0.00002253
  23         0.00004088
  24         0.00000000
  25        -0.00000000
  26         0.00000000
  27         0.00000000
  28         0.00000000
  29        -0.00000000
  30        -0.00000000
  31         0.01541996
  32         0.00023213
  33        -0.00007162
  34         0.00016690
  35         0.00021913
  36        -0.00000000
  37         0.00010423
  38         0.00013684
  39         0.00000000
  40        -0.00000000
  41         0.00000000
  42        -0.00000000
  43         0.00000000
  44        -0.00000000
  45        -0.00000000
  46         0.00009552
  47         0.00010665
  48         0.00195188
  49        -0.00116527
  50        -0.00126065
  51        -0.00095569
  52         0.00145716
  53         0.00000000
  54        -0.00055463
  55         0.00084565
  56        -0.00000000
  57         0.00000000
  58         0.00000000
  59         0.00000000
  60         0.00000000
  61        -0.00000000
  62        -0.00000000
  63         0.00003702
  64         0.00004133
  65         0.00195284
  66        -0.00116486
  67        -0.00126024
  68         0.00174213
  69        -0.00001226
  70         0.00000000
  71         0.00101104
  72        -0.00000711
  73        -0.00000000
  74         0.00000000
  75         0.00000000
  76         0.00000000
  77        -0.00000000
  78        -0.00000000
  79        -0.00000000
  80         0.00003739
  81         0.00004175
  82        -0.66757782
  83        -0.01139495
  84         0.00160303
  85        -0.00069645
  86        -0.00128786
  87         0.00000000
  88        -0.00043493
  89        -0.00080427
  90        -0.00000000
  91         0.00000000
  92         0.00000000
  93         0.00000000
  94        -0.00000000
  95        -0.00000000
  96        -0.00000000
  97         0.73697429
  98         0.01277701
  99        -0.00154975
 100        -0.00062714
 101        -0.00115972
 102        -0.00000000
 103        -0.00039165
 104        -0.00072425
 105        -0.00000000
 106        -0.00000000
 107        -0.00000000
 108        -0.00000000
 109        -0.00000000
 110        -0.00000000
 111         0.00000000
 112         0.00118951
 113         0.00132815
 114         0.00118728
 115         0.00132566
 116         0.00118728
 117         0.00132566
Sym=     7a  
Ene=   -11.3300
Spin= Alpha
Occup=    2.00000
   1         0.49525553
   2         0.00811809
   3        -0.00156274
   4        -0.00152010
   5        -0.00016644
   6        -0.00000000
   7        -0.00094930
   8        -0.00010394
   9         0.00000000
  10         0.00000000
  11        -0.00000000
  12        -0.00000000
  13        -0.00000000
  14        -0.00000000
  15        -0.00000000
  16        -0.70804904
  17        -0.01151068
  18         0.00234047
  19        -0.00057306
  20        -0.00105261
  21        -0.00000000
  22        -0.00035787
  23        -0.00065735
  24         0.00000000
  25        -0.00000000
  26         0.00000000
  27        -0.00000000
  28        -0.00000000
  29        -0.00000000
  30        -0.00000000
  31         0.49533192
  32         0.00811972
  33        -0.00156256
  34         0.00068518
  35        -0.00136671
  36        -0.00000000
  37         0.00042789
  38        -0.00085351
  39         0.00000000
  40        -0.00000000
  41         0.00000000
  42        -0.00000000
  43         0.00000000
  44         0.00000000
  45        -0.00000000
  46        -0.00112742
  47        -0.00125883
  48        -0.00154962
  49         0.00088904
  50         0.00096296
  51         0.00052449
  52         0.00110882
  53         0.00000000
  54         0.00030439
  55         0.00064350
  56        -0.00000000
  57         0.00000000
  58        -0.00000000
  59         0.00000000
  60         0.00000000
  61        -0.00000000
  62         0.00000000
  63         0.00078431
  64         0.00087573
  65        -0.00154872
  66         0.00088881
  67         0.00096271
  68         0.00064620
  69         0.00104223
  70         0.00000000
  71         0.00037502
  72         0.00060485
  73        -0.00000000
  74        -0.00000000
  75         0.00000000
  76         0.00000000
  77        -0.00000000
  78         0.00000000
  79        -0.00000000
  80         0.00078429
  81         0.00087570
  82         0.00291639
  83         0.00022553
  84         0.00018867
  85         0.00008333
  86         0.00015266
  87         0.00000000
  88         0.00005204
  89         0.00009534
  90        -0.00000000
  91         0.00000000
  92         0.00000000
  93         0.00000000
  94         0.00000000
  95         0.00000000
  96         0.00000000
  97         0.02673011
  98         0.00049630
  99        -0.00001960
 100         0.00000442
 101         0.00000810
 102        -0.00000000
 103         0.00000276
 104         0.00000506
 105         0.00000000
 106         0.00000000
 107        -0.00000000
 108         0.00000000
 109         0.00000000
 110        -0.00000000
 111         0.00000000
 112         0.00004834
 113         0.00005398
 114         0.00004861
 115         0.00005427
 116         0.00004861
 117         0.00005427
Sym=     8a  
Ene=    -1.8262
Spin= Alpha
Occup=    2.00000
   1        -0.08650849
   2         0.10084134
   3         0.11412436
   4         0.01989212
   5        -0.04569196
   6        -0.00000000
   7         0.01242262
   8        -0.02853460
   9         0.00000000
  10        -0.00000000
  11        -0.00000000
  12        -0.00000000
  13        -0.00000000
  14        -0.00000000
  15        -0.00000000
  16        -0.07954048
  17         0.09354188
  18         0.10584828
  19        -0.02246414
  20        -0.04126089
  21        -0.00000000
  22        -0.01402884
  23        -0.02576740
  24         0.00000000
  25        -0.00000000
  26        -0.00000000
  27        -0.00000000
  28        -0.00000000
  29        -0.00000000
  30        -0.00000000
  31        -0.08649845
  32         0.10083857
  33         0.11412106
  34        -0.04918207
  35        -0.00809811
  36        -0.00000000
  37        -0.03071418
  38        -0.00505726
  39         0.00000000
  40        -0.00000000
  41        -0.00000000
  42        -0.00000000
  43         0.00000000
  44        -0.00000000
  45        -0.00000000
  46         0.02592815
  47         0.02895013
  48        -0.09900312
  49         0.15300405
  50         0.16251921
  51         0.06363819
  52        -0.00692967
  53         0.00000000
  54         0.03693210
  55        -0.00402160
  56        -0.00000000
  57         0.00000000
  58         0.00000000
  59         0.00000000
  60         0.00000000
  61        -0.00000000
  62        -0.00000000
  63         0.02787549
  64         0.03112443
  65        -0.09901503
  66         0.15301699
  67         0.16253301
  68        -0.04042927
  69         0.04973407
  70         0.00000000
  71        -0.02346292
  72         0.02886291
  73        -0.00000000
  74         0.00000000
  75         0.00000000
  76         0.00000000
  77         0.00000000
  78         0.00000000
  79        -0.00000000
  80         0.02786817
  81         0.03111625
  82        -0.10808694
  83         0.12517082
  84         0.14167369
  85         0.02103415
  86         0.03849199
  87         0.00000000
  88         0.01313582
  89         0.02403823
  90        -0.00000000
  91        -0.00000000
  92        -0.00000000
  93        -0.00000000
  94         0.00000000
  95         0.00000000
  96         0.00000000
  97        -0.04048694
  98         0.05111872
  99         0.05778012
 100         0.01332761
 101         0.02455362
 102        -0.00000000
 103         0.00832309
 104         0.01533373
 105         0.00000000
 106         0.00000000
 107         0.00000000
 108         0.00000000
 109         0.00000000
 110        -0.00000000
 111         0.00000000
 112         0.01973155
 113         0.02203129
 114         0.01953567
 115         0.02181259
 116         0.01953567
 117         0.02181259
Sym=     9a  
Ene=    -1.4976
Spin= Alpha
Occup=    2.00000
   1         0.06495418
   2        -0.07913336
   3        -0.08949420
   4        -0.03184748
   5        -0.01012389
   6        -0.00000000
   7        -0.01988873
   8        -0.00632236
   9        -0.00000000
  10         0.00000000
  11        -0.00000000
  12        -0.00000000
  13        -0.00000000
  14         0.00000000
  15        -0.00000000
  16         0.08631686
  17        -0.10846845
  18        -0.12261196
  19         0.00511032
  20         0.00916492