[Molden Format]
[N_Atoms]
                   13
[Atoms] (AU)
C1          1      6          -1.93916136      2.14413995      0.00000000
C2          2      6           0.69332162      2.24654421      0.00000000
C3          3      6           2.03633108     -0.02014448      0.00000000
H4          4      1           1.67142496      4.04412729      0.00000000
N5          5      7          -3.13237223     -0.12929506      0.00000000
H6          6      1          -3.03425765      3.87097169      0.00000000
N7          7      7           0.77465543     -2.25678653      0.00000000
H8          8      1           4.08114703     -0.00156847      0.00000000
C9          9      6          -1.79493746     -2.32500564      0.00000000
C10        10      6          -3.13796582     -4.80801128      0.00000000
H11        11      1          -5.21821413     -4.52647988      0.00000000
H12        12      1          -2.60540320     -5.90146351      1.70944625
H13        13      1          -2.60540320     -5.90146351     -1.70944625
[Charge] (Mulliken)
   9.5353462052906401E-002
 -0.25978341981170772     
   7.7384469242153031E-002
  0.21209825565450346     
 -0.51955090685678673     
  0.20789791313393990     
 -0.56720145990754922     
  0.21559557586109213     
  0.48218617403701458     
 -0.52513504279342005     
  0.20759667990229724     
  0.18677915232524300     
  0.18677914715889687     
[GTO] (AU)
   1
   s   6
  3.047524880E+03  1.834737132E-03
  4.573695180E+02  1.403732281E-02
  1.039486850E+02  6.884262227E-02
  2.921015530E+01  2.321844432E-01
  9.286662960E+00  4.679413484E-01
  3.163926960E+00  3.623119853E-01
   s   3
  7.868272350E+00 -1.193324198E-01
  1.881288540E+00 -1.608541517E-01
  5.442492580E-01  1.143456438E+00
   s   1
  1.687144782E-01  1.000000000E+00
   p   3
  7.868272350E+00  6.899906659E-02
  1.881288540E+00  3.164239610E-01
  5.442492580E-01  7.443082909E-01
   p   1
  1.687144782E-01  1.000000000E+00
   d   1
  8.000000000E-01  1.000000000E+00
 
   2
   s   6
  3.047524880E+03  1.834737132E-03
  4.573695180E+02  1.403732281E-02
  1.039486850E+02  6.884262227E-02
  2.921015530E+01  2.321844432E-01
  9.286662960E+00  4.679413484E-01
  3.163926960E+00  3.623119853E-01
   s   3
  7.868272350E+00 -1.193324198E-01
  1.881288540E+00 -1.608541517E-01
  5.442492580E-01  1.143456438E+00
   s   1
  1.687144782E-01  1.000000000E+00
   p   3
  7.868272350E+00  6.899906659E-02
  1.881288540E+00  3.164239610E-01
  5.442492580E-01  7.443082909E-01
   p   1
  1.687144782E-01  1.000000000E+00
   d   1
  8.000000000E-01  1.000000000E+00
 
   3
   s   6
  3.047524880E+03  1.834737132E-03
  4.573695180E+02  1.403732281E-02
  1.039486850E+02  6.884262227E-02
  2.921015530E+01  2.321844432E-01
  9.286662960E+00  4.679413484E-01
  3.163926960E+00  3.623119853E-01
   s   3
  7.868272350E+00 -1.193324198E-01
  1.881288540E+00 -1.608541517E-01
  5.442492580E-01  1.143456438E+00
   s   1
  1.687144782E-01  1.000000000E+00
   p   3
  7.868272350E+00  6.899906659E-02
  1.881288540E+00  3.164239610E-01
  5.442492580E-01  7.443082909E-01
   p   1
  1.687144782E-01  1.000000000E+00
   d   1
  8.000000000E-01  1.000000000E+00
 
   4
   s   3
  1.873113696E+01  3.349460434E-02
  2.825394365E+00  2.347269535E-01
  6.401216923E-01  8.137573261E-01
   s   1
  1.612777588E-01  1.000000000E+00
 
   5
   s   6
  4.173511460E+03  1.834772160E-03
  6.274579110E+02  1.399462700E-02
  1.429020930E+02  6.858655181E-02
  4.023432930E+01  2.322408730E-01
  1.282021290E+01  4.690699481E-01
  4.390437010E+00  3.604551991E-01
   s   3
  1.162636186E+01 -1.149611817E-01
  2.716279807E+00 -1.691174786E-01
  7.722183966E-01  1.145851947E+00
   s   1
  2.120314975E-01  1.000000000E+00
   p   3
  1.162636186E+01  6.757974388E-02
  2.716279807E+00  3.239072959E-01
  7.722183966E-01  7.408951398E-01
   p   1
  2.120314975E-01  1.000000000E+00
   d   1
  8.000000000E-01  1.000000000E+00
 
   6
   s   3
  1.873113696E+01  3.349460434E-02
  2.825394365E+00  2.347269535E-01
  6.401216923E-01  8.137573261E-01
   s   1
  1.612777588E-01  1.000000000E+00
 
   7
   s   6
  4.173511460E+03  1.834772160E-03
  6.274579110E+02  1.399462700E-02
  1.429020930E+02  6.858655181E-02
  4.023432930E+01  2.322408730E-01
  1.282021290E+01  4.690699481E-01
  4.390437010E+00  3.604551991E-01
   s   3
  1.162636186E+01 -1.149611817E-01
  2.716279807E+00 -1.691174786E-01
  7.722183966E-01  1.145851947E+00
   s   1
  2.120314975E-01  1.000000000E+00
   p   3
  1.162636186E+01  6.757974388E-02
  2.716279807E+00  3.239072959E-01
  7.722183966E-01  7.408951398E-01
   p   1
  2.120314975E-01  1.000000000E+00
   d   1
  8.000000000E-01  1.000000000E+00
 
   8
   s   3
  1.873113696E+01  3.349460434E-02
  2.825394365E+00  2.347269535E-01
  6.401216923E-01  8.137573261E-01
   s   1
  1.612777588E-01  1.000000000E+00
 
   9
   s   6
  3.047524880E+03  1.834737132E-03
  4.573695180E+02  1.403732281E-02
  1.039486850E+02  6.884262227E-02
  2.921015530E+01  2.321844432E-01
  9.286662960E+00  4.679413484E-01
  3.163926960E+00  3.623119853E-01
   s   3
  7.868272350E+00 -1.193324198E-01
  1.881288540E+00 -1.608541517E-01
  5.442492580E-01  1.143456438E+00
   s   1
  1.687144782E-01  1.000000000E+00
   p   3
  7.868272350E+00  6.899906659E-02
  1.881288540E+00  3.164239610E-01
  5.442492580E-01  7.443082909E-01
   p   1
  1.687144782E-01  1.000000000E+00
   d   1
  8.000000000E-01  1.000000000E+00
 
  10
   s   6
  3.047524880E+03  1.834737132E-03
  4.573695180E+02  1.403732281E-02
  1.039486850E+02  6.884262227E-02
  2.921015530E+01  2.321844432E-01
  9.286662960E+00  4.679413484E-01
  3.163926960E+00  3.623119853E-01
   s   3
  7.868272350E+00 -1.193324198E-01
  1.881288540E+00 -1.608541517E-01
  5.442492580E-01  1.143456438E+00
   s   1
  1.687144782E-01  1.000000000E+00
   p   3
  7.868272350E+00  6.899906659E-02
  1.881288540E+00  3.164239610E-01
  5.442492580E-01  7.443082909E-01
   p   1
  1.687144782E-01  1.000000000E+00
   d   1
  8.000000000E-01  1.000000000E+00
 
  11
   s   3
  1.873113696E+01  3.349460434E-02
  2.825394365E+00  2.347269535E-01
  6.401216923E-01  8.137573261E-01
   s   1
  1.612777588E-01  1.000000000E+00
 
  12
   s   3
  1.873113696E+01  3.349460434E-02
  2.825394365E+00  2.347269535E-01
  6.401216923E-01  8.137573261E-01
   s   1
  1.612777588E-01  1.000000000E+00
 
  13
   s   3
  1.873113696E+01  3.349460434E-02
  2.825394365E+00  2.347269535E-01
  6.401216923E-01  8.137573261E-01
   s   1
  1.612777588E-01  1.000000000E+00
 
[MO]
Sym=     1a  
Ene=   -15.6020
Spin= Alpha
Occup=    2.00000
   1        -0.00000162
   2        -0.00000116
   3        -0.00132331
   4        -0.00000447
   5         0.00001418
   6        -0.00000000
   7        -0.00028250
   8         0.00050816
   9        -0.00000000
  10        -0.00001840
  11         0.00000381
  12         0.00000629
  13        -0.00000419
  14         0.00000000
  15         0.00000000
  16        -0.00002577
  17        -0.00010187
  18         0.00196880
  19         0.00004412
  20        -0.00005545
  21         0.00000000
  22        -0.00059807
  23        -0.00119483
  24         0.00000000
  25        -0.00004824
  26         0.00001401
  27        -0.00002171
  28         0.00000132
  29         0.00000000
  30        -0.00000000
  31        -0.00001082
  32        -0.00023096
  33        -0.00287596
  34         0.00006279
  35         0.00013476
  36         0.00000000
  37         0.00189494
  38         0.00026396
  39         0.00000000
  40         0.00007536
  41         0.00029286
  42         0.00008803
  43         0.00012578
  44        -0.00000000
  45         0.00000000
  46         0.00004689
  47         0.00032844
  48         0.00025917
  49        -0.00004447
  50         0.00089396
  51         0.00003535
  52        -0.00005299
  53        -0.00000000
  54         0.00056015
  55         0.00047454
  56        -0.00000000
  57         0.00000089
  58        -0.00009718
  59        -0.00000157
  60        -0.00001233
  61        -0.00000000
  62         0.00000000
  63         0.00000403
  64        -0.00008445
  65        -0.99512786
  66        -0.02508172
  67         0.00530148
  68         0.00058511
  69        -0.00106776
  70        -0.00000000
  71        -0.00130356
  72         0.00170300
  73         0.00000000
  74         0.00308152
  75         0.00318851
  76         0.00320065
  77        -0.00016750
  78         0.00000000
  79        -0.00000000
  80        -0.00003058
  81        -0.00047875
  82        -0.00003447
  83        -0.00029511
  84        -0.00201048
  85        -0.00015382
  86         0.00000005
  87        -0.00000000
  88        -0.00197675
  89        -0.00081075
  90        -0.00000000
  91         0.00025621
  92         0.00003690
  93         0.00003903
  94        -0.00005374
  95         0.00000000
  96        -0.00000000
  97         0.00000705
  98         0.00002924
  99        -0.00069915
 100         0.00000465
 101        -0.00000702
 102         0.00000000
 103         0.00026887
 104        -0.00034640
 105         0.00000000
 106         0.00004477
 107        -0.00003283
 108         0.00004044
 109         0.00006001
 110        -0.00000000
 111        -0.00000000
 112         0.00004408
 113         0.00016191
 114        -0.00000989
 115         0.00000338
 116        -0.00000989
 117         0.00000338
Sym=     2a  
Ene=   -15.5620
Spin= Alpha
Occup=    2.00000
   1         0.00000690
   2         0.00029017
   3         0.00320799
   4        -0.00005836
   5        -0.00007259
   6         0.00000000
   7         0.00104279
   8        -0.00180813
   9        -0.00000000
  10        -0.00015884
  11        -0.00038210
  12        -0.00009530
  13        -0.00023101
  14        -0.00000000
  15        -0.00000000
  16         0.00002443
  17         0.00008264
  18        -0.00219795
  19         0.00008306
  20         0.00000638
  21        -0.00000000
  22         0.00076031
  23         0.00109793
  24        -0.00000000
  25         0.00000594
  26         0.00004003
  27         0.00001308
  28        -0.00003575
  29        -0.00000000
  30         0.00000000
  31        -0.00000145
  32         0.00000045
  33         0.00124362
  34         0.00000356
  35        -0.00000367
  36        -0.00000000
  37        -0.00060702
  38        -0.00000980
  39        -0.00000000
  40        -0.00000900
  41         0.00000219
  42        -0.00001348
  43        -0.00001234
  44        -0.00000000
  45        -0.00000000
  46        -0.00003768
  47        -0.00029568
  48         0.99520218
  49         0.02495089
  50        -0.00587037
  51         0.00189290
  52         0.00009702
  53         0.00000000
  54        -0.00268939
  55         0.00023942
  56         0.00000000
  57        -0.00292954
  58        -0.00273714
  59        -0.00316638
  60         0.00003305
  61        -0.00000000
  62        -0.00000000
  63         0.00004259
  64         0.00050305
  65         0.00030423
  66         0.00004453
  67        -0.00107945
  68         0.00005642
  69         0.00000853
  70         0.00000000
  71         0.00001997
  72        -0.00064759
  73         0.00000000
  74         0.00005952
  75         0.00006015
  76        -0.00001180
  77         0.00005906
  78        -0.00000000
  79         0.00000000
  80         0.00000618
  81         0.00011022
  82         0.00002927
  83         0.00036417
  84         0.00254005
  85        -0.00003991
  86         0.00009429
  87         0.00000000
  88        -0.00024513
  89         0.00219232
  90         0.00000000
  91        -0.00018631
  92        -0.00028112
  93        -0.00004513
  94         0.00021702
  95         0.00000000
  96         0.00000000
  97        -0.00000567
  98        -0.00002232
  99         0.00067752
 100         0.00001036
 101         0.00000389
 102        -0.00000000
 103         0.00039672
 104        -0.00006043
 105        -0.00000000
 106         0.00004018
 107        -0.00008155
 108        -0.00000535
 109         0.00003859
 110         0.00000000
 111         0.00000000
 112         0.00003079
 113         0.00000813
 114        -0.00001387
 115        -0.00011336
 116        -0.00001387
 117        -0.00011336
Sym=     3a  
Ene=   -11.3190
Spin= Alpha
Occup=    2.00000
   1        -0.00014969
   2        -0.00033552
   3         0.00380316
   4        -0.00005110
   5        -0.00005951
   6        -0.00000000
   7         0.00182127
   8        -0.00247965
   9         0.00000000
  10         0.00010377
  11         0.00022490
  12        -0.00008185
  13         0.00003542
  14         0.00000000
  15         0.00000000
  16        -0.00003996
  17         0.00035420
  18        -0.00517085
  19         0.00000344
  20         0.00001365
  21         0.00000000
  22         0.00152162
  23         0.00306673
  24         0.00000000
  25        -0.00003479
  26        -0.00003292
  27         0.00010384
  28         0.00001635
  29         0.00000000
  30        -0.00000000
  31        -0.00022835
  32        -0.00038377
  33         0.00393868
  34        -0.00001079
  35        -0.00007373
  36         0.00000000
  37        -0.00332563
  38         0.00046430
  39         0.00000000
  40         0.00016147
  41         0.00017968
  42        -0.00009411
  43         0.00006750
  44         0.00000000
  45         0.00000000
  46        -0.00010591
  47        -0.00094374
  48        -0.00021994
  49         0.00049242
  50        -0.00221239
  51         0.00005055
  52        -0.00002064
  53        -0.00000000
  54        -0.00170982
  55        -0.00042837
  56        -0.00000000
  57        -0.00021010
  58        -0.00030579
  59         0.00029127
  60         0.00009522
  61        -0.00000000
  62         0.00000000
  63         0.00012254
  64         0.00094909
  65        -0.00020665
  66         0.00063116
  67        -0.00279295
  68         0.00004283
  69        -0.00004821
  70        -0.00000000
  71         0.00118443
  72        -0.00164942
  73        -0.00000000
  74        -0.00055106
  75        -0.00010544
  76         0.00033773
  77        -0.00000276
  78         0.00000000
  79        -0.00000000
  80         0.00013662
  81         0.00104659
  82         0.99574844
  83         0.02652203
  84        -0.00692620
  85         0.00061654
  86         0.00033576
  87        -0.00000000
  88         0.00141122
  89         0.00200802
  90        -0.00000000
  91        -0.00113656
  92        -0.00132145
  93        -0.00223817
  94        -0.00007209
  95        -0.00000000
  96        -0.00000000
  97         0.00398256
  98         0.00024279
  99         0.00286628
 100        -0.00003717
 101        -0.00015049
 102         0.00000000
 103         0.00048373
 104         0.00154454
 105        -0.00000000
 106        -0.00023181
 107        -0.00044523
 108        -0.00008075
 109        -0.00021221
 110        -0.00000000
 111        -0.00000000
 112        -0.00007536
 113        -0.00008773
 114        -0.00012516
 115         0.00036913
 116        -0.00012516
 117         0.00036913
Sym=     4a  
Ene=   -11.2780
Spin= Alpha
Occup=    2.00000
   1         0.00045349
   2        -0.00013316
   3         0.00102065
   4         0.00000625
   5        -0.00004926
   6        -0.00000000
   7         0.00080472
   8        -0.00012269
   9        -0.00000000
  10         0.00016174
  11         0.00004672
  12        -0.00001153
  13        -0.00005466
  14        -0.00000000
  15         0.00000000
  16         0.01862701
  17         0.00045936
  18         0.00282518
  19        -0.00007764
  20         0.00012228
  21         0.00000000
  22         0.00186943
  23        -0.00100758
  24         0.00000000
  25        -0.00038351
  26        -0.00034618
  27        -0.00009926
  28         0.00006468
  29         0.00000000
  30        -0.00000000
  31         0.99546741
  32         0.02731032
  33        -0.00893727
  34        -0.00063750
  35        -0.00076513
  36         0.00000000
  37         0.00019046
  38        -0.00199351
  39         0.00000000
  40        -0.00171175
  41        -0.00138555
  42        -0.00241119
  43         0.00018156
  44         0.00000000
  45         0.00000000
  46        -0.00011700
  47        -0.00028758
  48         0.00006567
  49         0.00024257
  50        -0.00260519
  51        -0.00002421
  52         0.00001133
  53        -0.00000000
  54        -0.00100542
  55         0.00070611
  56        -0.00000000
  57         0.00006931
  58         0.00009678
  59         0.00013670
  60         0.00007213
  61        -0.00000000
  62         0.00000000
  63        -0.00001300
  64         0.00021539
  65        -0.00024479
  66         0.00043555
  67        -0.00108106
  68         0.00006186
  69         0.00000631
  70        -0.00000000
  71        -0.00055706
  72        -0.00169239
  73         0.00000000
  74        -0.00030448
  75        -0.00055537
  76         0.00022048
  77        -0.00028542
  78         0.00000000
  79         0.00000000
  80        -0.00017796
  81         0.00177769
  82         0.00019014
  83        -0.00023803
  84         0.00100674
  85        -0.00003815
  86        -0.00009543
  87        -0.00000000
  88         0.00048831
  89         0.00319833
  90        -0.00000000
  91         0.00022315
  92         0.00012490
  93        -0.00005590
  94         0.00001889
  95         0.00000000
  96        -0.00000000
  97         0.00004316
  98        -0.00004844
  99         0.00176664
 100         0.00011090
 101         0.00005697
 102         0.00000000
 103         0.00023250
 104         0.00062053
 105         0.00000000
 106         0.00002808
 107        -0.00001466
 108         0.00000251
 109         0.00001289
 110         0.00000000
 111        -0.00000000
 112        -0.00005843
 113        -0.00014549
 114        -0.00000928
 115        -0.00000652
 116        -0.00000928
 117        -0.00000652
Sym=     5a  
Ene=   -11.2630
Spin= Alpha
Occup=    2.00000
   1         0.99496552
   2         0.02727413
   3        -0.00890916
   4        -0.00014318
   5        -0.00075638
   6         0.00000000
   7        -0.00176268
   8        -0.00105337
   9        -0.00000000
  10        -0.00160401
  11        -0.00150439
  12        -0.00241487
  13         0.00024447
  14         0.00000000
  15        -0.00000000
  16         0.03654232
  17         0.00099525
  18         0.00250970
  19         0.00015852
  20        -0.00001323
  21        -0.00000000
  22        -0.00182739
  23         0.00118821
  24         0.00000000
  25        -0.00048108
  26        -0.00035585
  27        -0.00014092
  28         0.00004506
  29        -0.00000000
  30        -0.00000000
  31        -0.00116017
  32        -0.00018747
  33         0.00122535
  34        -0.00004159
  35        -0.00001777
  36        -0.00000000
  37        -0.00064732
  38         0.00066122
  39        -0.00000000
  40         0.00012102
  41         0.00008007
  42        -0.00001198
  43        -0.00008162
  44        -0.00000000
  45         0.00000000
  46        -0.00013395
  47        -0.00030823
  48        -0.00025143
  49         0.00039118
  50        -0.00087311
  51         0.00000058
  52         0.00007082
  53        -0.00000000
  54        -0.00106466
  55        -0.00141021
  56         0.00000000
  57        -0.00024364
  58        -0.00055000
  59         0.00020000
  60        -0.00019653
  61         0.00000000
  62         0.00000000
  63        -0.00018008
  64         0.00183681
  65         0.00006918
  66         0.00026393
  67        -0.00279631
  68         0.00001712
  69        -0.00002266
  70        -0.00000000
  71         0.00121203
  72        -0.00046053
  73         0.00000000
  74         0.00003980
  75         0.00014601
  76         0.00014786
  77         0.00004245
  78        -0.00000000
  79        -0.00000000
  80        -0.00000996
  81         0.00023759
  82         0.00012099
  83        -0.00022666
  84         0.00092047
  85        -0.00005644
  86        -0.00008339
  87         0.00000000
  88         0.00262364
  89         0.00201098
  90        -0.00000000
  91         0.00013656
  92         0.00020423
  93        -0.00005081
  94        -0.00004209
  95        -0.00000000
  96        -0.00000000
  97         0.00004599
  98        -0.00009047
  99         0.00198478
 100         0.00001581
 101         0.00010737
 102        -0.00000000
 103         0.00015555
 104         0.00064980
 105         0.00000000
 106        -0.00004470
 107         0.00001045
 108         0.00000364
 109        -0.00001592
 110         0.00000000
 111         0.00000000
 112        -0.00000428
 113        -0.00022454
 114        -0.00005628
 115        -0.00004852
 116        -0.00005628
 117        -0.00004852
Sym=     6a  
Ene=   -11.2470
Spin= Alpha
Occup=    2.00000
   1        -0.03704896
   2        -0.00120793
   3         0.00654345
   4        -0.00015051
   5         0.00003228
   6         0.00000000
   7         0.00231140
   8        -0.00150204
   9        -0.00000000
  10        -0.00037714
  11        -0.00019903
  12        -0.00002688
  13        -0.00005928
  14        -0.00000000
  15        -0.00000000
  16         0.99483686
  17         0.02783247
  18        -0.01541192
  19        -0.00001106
  20        -0.00031418
  21        -0.00000000
  22         0.00151465
  23         0.00291738
  24         0.00000000
  25        -0.00155150
  26        -0.00167126
  27        -0.00233558
  28        -0.00012779
  29         0.00000000
  30        -0.00000000
  31        -0.01908906
  32        -0.00067105
  33         0.00634761
  34         0.00011126
  35        -0.00016046
  36        -0.00000000
  37        -0.00237994
  38         0.00116938
  39        -0.00000000
  40        -0.00025240
  41        -0.00047834
  42        -0.00007070
  43         0.00010859
  44         0.00000000
  45         0.00000000
  46        -0.00025395
  47         0.00122758
  48         0.00008035
  49         0.00017398
  50        -0.00262388
  51         0.00002336
  52         0.00001406
  53         0.00000000
  54        -0.00095818
  55        -0.00024765
  56         0.00000000
  57         0.00018650
  58         0.00020050
  59         0.00011767
  60         0.00005157
  61         0.00000000
  62        -0.00000000
  63        -0.00001110
  64         0.00029406
  65         0.00007367
  66         0.00015370
  67        -0.00250385
  68        -0.00001651
  69         0.00004906
  70         0.00000000
  71         0.00031457
  72        -0.00085836
  73         0.00000000
  74         0.00014830
  75         0.00022614
  76         0.00010586
  77         0.00002915
  78        -0.00000000
  79        -0.00000000
  80        -0.00002460
  81         0.00028259
  82         0.00010625
  83         0.00002258
  84         0.00097151
  85         0.00000210
  86         0.00000152
  87         0.00000000
  88         0.00051951
  89         0.00090705
  90         0.00000000
  91         0.00002941
  92         0.00004126
  93        -0.00000341
  94         0.00001421
  95        -0.00000000
  96         0.00000000
  97        -0.00000574
  98        -0.00002181
  99         0.00052900
 100         0.00000982
 101         0.00001168
 102        -0.00000000
 103         0.00005504
 104         0.00014899
 105         0.00000000
 106        -0.00000569
 107        -0.00001355
 108        -0.00000922
 109        -0.00000605
 110         0.00000000
 111         0.00000000
 112        -0.00000948
 113        -0.00005271
 114        -0.00000610
 115        -0.00002562
 116        -0.00000610
 117        -0.00002562
Sym=     7a  
Ene=   -11.2380
Spin= Alpha
Occup=    2.00000
   1        -0.00007591
   2        -0.00005745
   3         0.00027715
   4        -0.00000248
   5         0.00000344
   6         0.00000000
   7         0.00003124
   8        -0.00016752
   9         0.00000000
  10        -0.00000385
  11         0.00001035
  12        -0.00002326
  13         0.00000504
  14        -0.00000000
  15        -0.00000000
  16        -0.00000844
  17        -0.00002495
  18         0.00005913
  19        -0.00000122
  20         0.00001482
  21        -0.00000000
  22         0.00013676
  23        -0.00002704
  24        -0.00000000
  25        -0.00000036
  26        -0.00000082
  27        -0.00001816
  28         0.00000268
  29        -0.00000000
  30         0.00000000
  31        -0.00005937
  32        -0.00005881
  33         0.00063829
  34        -0.00001053
  35        -0.00003769
  36        -0.00000000
  37        -0.00026023
  38        -0.00049466
  39         0.00000000
  40         0.00001717
  41         0.00003980
  42        -0.00002560
  43         0.00002521
  44        -0.00000000
  45        -0.00000000
  46        -0.00001430
  47         0.00001802
  48        -0.00001184
  49        -0.00012952
  50         0.00004775
  51         0.00001766
  52         0.00006101
  53         0.00000000
  54         0.00030577
  55        -0.00009138
  56        -0.00000000
  57         0.00003754
  58         0.00000834
  59        -0.00011258
  60        -0.00006339
  61         0.00000000
  62        -0.00000000
  63        -0.00000597
  64         0.00006229
  65        -0.00002809
  66        -0.00019360
  67         0.00080967
  68         0.00007099
  69         0.00009348
  70         0.00000000
  71        -0.00106208
  72        -0.00041842
  73         0.00000000
  74         0.00009141
  75        -0.00008424
  76        -0.00015024
  77        -0.00003162
  78        -0.00000000
  79        -0.00000000
  80        -0.00001726
  81         0.00006463
  82        -0.00429360
  83         0.00005305
  84         0.00313031
  85         0.00001674
  86         0.00003673
  87         0.00000000
  88        -0.00217601
  89        -0.00219574
  90         0.00000000
  91        -0.00036645
  92        -0.00049337
  93        -0.00012707
  94        -0.00016936
  95         0.00000000
  96         0.00000000
  97         0.99575373
  98         0.02846284
  99        -0.01575745
 100         0.00024441
 101         0.00023511
 102        -0.00000000
 103        -0.00058137
 104        -0.00116656
 105        -0.00000000
 106        -0.00178669
 107        -0.00182209
 108        -0.00180181
 109         0.00002798
 110        -0.00000000
 111         0.00000000
 112         0.00019731
 113         0.00241384
 114         0.00016580
 115         0.00250088
 116         0.00016580
 117         0.00250088
Sym=     8a  
Ene=    -1.2921
Spin= Alpha
Occup=    2.00000
   1        -0.05767370
   2         0.11141525
   3         0.00244982
   4        -0.00088181
   5        -0.06113764
   6        -0.00000001
   7        -0.01180577
   8         0.02566192
   9        -0.00000000
  10         0.00072441
  11         0.00994526
  12        -0.00629728
  13         0.00422339
  14         0.00000000
  15         0.00000000
  16        -0.04186481
  17         0.07503169
  18         0.08872166
  19        -0.01484777
  20        -0.03577288
  21         0.00000001
  22        -0.01991432
  23        -0.03625108
  24         0.00000002
  25         0.00372768
  26         0.00372214
  27        -0.00459613
  28        -0.00121120
  29         0.00000000
  30        -0.00000000
  31        -0.06985702
  32         0.13526574
  33         0.01045880
  34        -0.05860890
  35        -0.04646947
  36         0.00000000
  37         0.03259337
  38         0.00557144
  39         0.00000001
  40         0.00421238
  41         0.00875150
  42        -0.00776053
  43         0.00819085
  44         0.00000000
  45         0.00000000
  46         0.01202144
  47         0.01002060
  48        -0.10281770
  49         0.20621644
  50         0.23586570
  51         0.07578128
  52        -0.01417325
  53        -0.00000005
  54         0.05294104
  55        -0.00198472
  56        -0.00000004
  57         0.00358239
  58         0.00642197
  59        -0.00923951
  60        -0.00270016
  61        -0.00000000
  62         0.00000000
  63         0.01522173
  64        -0.00774882
  65        -0.12847041
  66         0.26241664
  67         0.29338372
  68        -0.05567928
  69         0.06310781
  70        -0.00000004
  71        -0.03253131
  72         0.04818543
  73        -0.00000002
  74         0.00944475
  75         0.00280914
  76        -0.00988076
  77         0.00332499
  78         0.00000000
  79        -0.00000000
  80         0.01937609
  81        -0.00961006
  82        -0.10844876
  83         0.21326978
  84         0.04077474
  85         0.04990577
  86         0.06166823
  87        -0.00000006
  88        -0.01376468
  89        -0.02435272
  90        -0.00000004
  91         0.01267384
  92         0.00536933
  93        -0.01254813
  94        -0.00348528
  95        -0.00000000
  96        -0.00000000
  97        -0.02320218
  98         0.04327488
  99         0.01978975
 100         0.01498781
 101         0.02566192
 102        -0.00000000
 103         0.00126483
 104         0.00002722
 105         0.00000000
 106         0.00106401
 107         0.00476500
 108        -0.00034981
 109         0.00371842
 110        -0.00000000
 111        -0.00000000
 112         0.00876390
 113         0.00025201
 114         0.00891191
 115        -0.00003281
 116         0.00891190
 117        -0.00003282
Sym=     9a  
Ene=    -1.1661
Spin= Alpha
Occup=    2.00000
   1         0.08541055
   2        -0.16554989
   3        -0.07956596
   4         0.04041275
   5         0.08659673
   6         0.00000002
   7        -0.00066710
   8        -0.01567933
   9         0.00000001
  10         0.00017991
  11        -0.01583977
  12         0.00930855
  13        -0.00925278
  14        -0.00000000
  15        -0.00000000
  16         0.00635137
  17        -0.01183713
  18        -0.00829476
  19         0.05167864
  20        -0.02263906