[Molden Format]
[N_Atoms]
                   10
[Atoms] (AU)
C1          1      6          -4.53248921      1.79195169      0.00479990
C2          2      6          -2.62781535      0.13830906     -0.03388279
H3          3      1          -6.47066792      1.12374454     -0.04629829
H4          4      1          -4.18375915      3.81278702      0.08711637
C5          5      6           0.02745772      0.99435499      0.03380720
H6          6      1          -3.05443992     -1.86886355     -0.11669059
C7          7      6           1.93213158     -0.65928765     -0.00476211
H8          8      1           0.45410119      3.00152759      0.11653941
H9          9      1           1.58342042     -2.68014187     -0.08696520
H10        10      1           3.87032918      0.00890061      0.04633608
[Charge] (Mulliken)
   2.4950968156158408     
   1.5567883051822795     
   1.0014393489646478     
  0.99591449481708016     
   1.5567891283444766     
  0.95077174737206971     
   2.4950694142671797     
  0.95078168408578190     
  0.99590909061954991     
   1.0014399707308388     
[GTO] (AU)
   1
   s   6
  3.047524880E+03  1.834737132E-03
  4.573695180E+02  1.403732281E-02
  1.039486850E+02  6.884262227E-02
  2.921015530E+01  2.321844432E-01
  9.286662960E+00  4.679413484E-01
  3.163926960E+00  3.623119853E-01
   s   3
  7.868272350E+00 -1.193324198E-01
  1.881288540E+00 -1.608541517E-01
  5.442492580E-01  1.143456438E+00
   s   1
  1.687144782E-01  1.000000000E+00
   p   3
  7.868272350E+00  6.899906659E-02
  1.881288540E+00  3.164239610E-01
  5.442492580E-01  7.443082909E-01
   p   1
  1.687144782E-01  1.000000000E+00
   d   1
  8.000000000E-01  1.000000000E+00
 
   2
   s   6
  3.047524880E+03  1.834737132E-03
  4.573695180E+02  1.403732281E-02
  1.039486850E+02  6.884262227E-02
  2.921015530E+01  2.321844432E-01
  9.286662960E+00  4.679413484E-01
  3.163926960E+00  3.623119853E-01
   s   3
  7.868272350E+00 -1.193324198E-01
  1.881288540E+00 -1.608541517E-01
  5.442492580E-01  1.143456438E+00
   s   1
  1.687144782E-01  1.000000000E+00
   p   3
  7.868272350E+00  6.899906659E-02
  1.881288540E+00  3.164239610E-01
  5.442492580E-01  7.443082909E-01
   p   1
  1.687144782E-01  1.000000000E+00
   d   1
  8.000000000E-01  1.000000000E+00
 
   3
   s   3
  1.873113696E+01  3.349460434E-02
  2.825394365E+00  2.347269535E-01
  6.401216923E-01  8.137573261E-01
   s   1
  1.612777588E-01  1.000000000E+00
 
   4
   s   3
  1.873113696E+01  3.349460434E-02
  2.825394365E+00  2.347269535E-01
  6.401216923E-01  8.137573261E-01
   s   1
  1.612777588E-01  1.000000000E+00
 
   5
   s   6
  3.047524880E+03  1.834737132E-03
  4.573695180E+02  1.403732281E-02
  1.039486850E+02  6.884262227E-02
  2.921015530E+01  2.321844432E-01
  9.286662960E+00  4.679413484E-01
  3.163926960E+00  3.623119853E-01
   s   3
  7.868272350E+00 -1.193324198E-01
  1.881288540E+00 -1.608541517E-01
  5.442492580E-01  1.143456438E+00
   s   1
  1.687144782E-01  1.000000000E+00
   p   3
  7.868272350E+00  6.899906659E-02
  1.881288540E+00  3.164239610E-01
  5.442492580E-01  7.443082909E-01
   p   1
  1.687144782E-01  1.000000000E+00
   d   1
  8.000000000E-01  1.000000000E+00
 
   6
   s   3
  1.873113696E+01  3.349460434E-02
  2.825394365E+00  2.347269535E-01
  6.401216923E-01  8.137573261E-01
   s   1
  1.612777588E-01  1.000000000E+00
 
   7
   s   6
  3.047524880E+03  1.834737132E-03
  4.573695180E+02  1.403732281E-02
  1.039486850E+02  6.884262227E-02
  2.921015530E+01  2.321844432E-01
  9.286662960E+00  4.679413484E-01
  3.163926960E+00  3.623119853E-01
   s   3
  7.868272350E+00 -1.193324198E-01
  1.881288540E+00 -1.608541517E-01
  5.442492580E-01  1.143456438E+00
   s   1
  1.687144782E-01  1.000000000E+00
   p   3
  7.868272350E+00  6.899906659E-02
  1.881288540E+00  3.164239610E-01
  5.442492580E-01  7.443082909E-01
   p   1
  1.687144782E-01  1.000000000E+00
   d   1
  8.000000000E-01  1.000000000E+00
 
   8
   s   3
  1.873113696E+01  3.349460434E-02
  2.825394365E+00  2.347269535E-01
  6.401216923E-01  8.137573261E-01
   s   1
  1.612777588E-01  1.000000000E+00
 
   9
   s   3
  1.873113696E+01  3.349460434E-02
  2.825394365E+00  2.347269535E-01
  6.401216923E-01  8.137573261E-01
   s   1
  1.612777588E-01  1.000000000E+00
 
  10
   s   3
  1.873113696E+01  3.349460434E-02
  2.825394365E+00  2.347269535E-01
  6.401216923E-01  8.137573261E-01
   s   1
  1.612777588E-01  1.000000000E+00
 
[MO]
Sym=     1a  
Ene=   -15.9540
Spin= Alpha
Occup=    2.00000
   1         0.99679756
   2         0.01568801
   3        -0.01403242
   4        -0.00300355
   5         0.00183521
   6         0.00003127
   7         0.00043359
   8         0.00033078
   9         0.00001842
  10         0.00078767
  11         0.00092354
  12         0.00033270
  13         0.00049664
  14         0.00002601
  15         0.00003281
  16         0.00135664
  17        -0.00086297
  18         0.00579896
  19        -0.00047208
  20         0.00029427
  21         0.00000514
  22        -0.00182073
  23         0.00288761
  24         0.00008724
  25         0.00075059
  26         0.00052532
  27        -0.00015789
  28        -0.00089709
  29        -0.00002077
  30         0.00001862
  31        -0.00094159
  32         0.00309337
  33        -0.00079929
  34         0.00254410
  35         0.00009409
  36         0.00006290
  37        -0.00071828
  38        -0.00003422
  39         0.00001541
  40         0.00000015
  41         0.00148565
  42        -0.00028162
  43         0.00000862
  44         0.00005995
  45         0.00002177
  46         0.00005114
  47        -0.00011883
  48        -0.00000443
  49        -0.00000287
  50         0.00003989
  51         0.00044671
  52         0.03945199
  53         0.00053461
  54        -0.00088949
  55         0.00021433
  56        -0.00005677
  57         0.00000063
  58        -0.00069608
  59        -0.00066850
  60        -0.00003481
  61         0.00005855
  62        -0.00000538
  63        -0.00003021
  64         0.00003315
  65         0.00000262
  66         0.00000154
  67         0.00009981
  68        -0.00009589
  69        -0.00015157
  70        -0.00010984
  71         0.00004627
  72         0.00056224
Sym=     2a  
Ene=   -15.9540
Spin= Alpha
Occup=    2.00000
   1         0.03948530
   2         0.00070801
   3        -0.00022063
   4        -0.00002323
   5         0.00008859
   6         0.00000310
   7        -0.00066380
   8        -0.00064432
   9        -0.00003348
  10         0.00000374
  11         0.00007865
  12         0.00005669
  13         0.00000614
  14        -0.00000056
  15         0.00000106
  16         0.00001322
  17        -0.00013150
  18         0.00118023
  19        -0.00007178
  20         0.00003878
  21         0.00000055
  22         0.00134577
  23        -0.00005358
  24         0.00001559
  25        -0.00000061
  26         0.00001983
  27        -0.00006382
  28         0.00004804
  29         0.00000281
  30         0.00000436
  31        -0.00012109
  32        -0.00031863
  33         0.00008865
  34         0.00031193
  35        -0.00135362
  36         0.00087059
  37        -0.00587394
  38        -0.00047623
  39         0.00029634
  40         0.00000514
  41        -0.00170880
  42         0.00287410
  43         0.00008803
  44        -0.00074812
  45        -0.00052521
  46         0.00016245
  47         0.00089043
  48         0.00002042
  49        -0.00001885
  50        -0.00009696
  51         0.00013158
  52        -0.99679882
  53        -0.01569522
  54         0.01400577
  55        -0.00299600
  56         0.00183608
  57         0.00003124
  58         0.00038000
  59         0.00027912
  60         0.00001573
  61        -0.00078541
  62        -0.00092681
  63        -0.00033603
  64        -0.00049551
  65        -0.00002587
  66        -0.00003277
  67        -0.00003208
  68        -0.00045563
  69         0.00078971
  70        -0.00256054
  71         0.00094821
  72        -0.00305863
Sym=     3a  
Ene=   -15.6170
Spin= Alpha
Occup=    2.00000
   1        -0.00138203
   2        -0.00000551
   3         0.00389157
   4        -0.00028986
   5         0.00043904
   6         0.00001309
   7         0.00113764
   8        -0.00075227
   9        -0.00001404
  10        -0.00036095
  11        -0.00038931
  12        -0.00017156
  13         0.00030224
  14         0.00000876
  15        -0.00000572
  16         0.70177647
  17         0.01548283
  18        -0.00685166
  19        -0.00072415
  20         0.00100714
  21         0.00002927
  22         0.00164003
  23        -0.00184679
  24        -0.00004956
  25        -0.00011583
  26        -0.00024252
  27        -0.00113321
  28        -0.00040066
  29        -0.00000001
  30         0.00003438
  31        -0.00005428
  32         0.00002666
  33        -0.00002102
  34        -0.00022143
  35         0.70747837
  36         0.01560582
  37        -0.00695051
  38         0.00072912
  39        -0.00101762
  40        -0.00002955
  41        -0.00163015
  42         0.00186025
  43         0.00005012
  44        -0.00011173
  45        -0.00024140
  46        -0.00114038
  47        -0.00040273
  48         0.00000011
  49         0.00003466
  50        -0.00044324
  51         0.00067460
  52        -0.00139335
  53        -0.00000378
  54         0.00392011
  55         0.00029229
  56        -0.00044344
  57        -0.00001321
  58        -0.00114851
  59         0.00075487
  60         0.00001396
  61        -0.00036482
  62        -0.00039318
  63        -0.00017278
  64         0.00030491
  65         0.00000880
  66        -0.00000579
  67        -0.00044613
  68         0.00068374
  69        -0.00002132
  70        -0.00022392
  71        -0.00005417
  72         0.00002733
Sym=     4a  
Ene=   -15.6170
Spin= Alpha
Occup=    2.00000
   1         0.00139003
   2        -0.00021576
   3        -0.00356355
   4         0.00030747
   5        -0.00055369
   6        -0.00001728
   7        -0.00136618
   8         0.00031071
   9        -0.00000592
  10         0.00048906
  11         0.00048772
  12         0.00015348
  13        -0.00033912
  14        -0.00000797
  15         0.00001042
  16        -0.70780079
  17        -0.01527912
  18         0.01228497
  19         0.00063225
  20        -0.00134829
  21        -0.00004359
  22         0.00123467
  23         0.00170992
  24         0.00008194
  25        -0.00049959
  26        -0.00014113
  27         0.00089468
  28         0.00026257
  29        -0.00001100
  30        -0.00004264
  31        -0.00001560
  32        -0.00009105
  33         0.00003880
  34         0.00031884
  35         0.70210151
  36         0.01515326
  37        -0.01222912
  38         0.00062625
  39        -0.00133976
  40        -0.00004328
  41         0.00124804
  42         0.00169448
  43         0.00008146
  44         0.00050055
  45         0.00014307
  46        -0.00088545
  47        -0.00025928
  48         0.00001104
  49         0.00004231
  50         0.00035714
  51        -0.00111232
  52        -0.00137895
  53         0.00021579
  54         0.00353171
  55         0.00030507
  56        -0.00055010
  57        -0.00001713
  58        -0.00135691
  59         0.00030459
  60        -0.00000609
  61        -0.00048605
  62        -0.00048451
  63        -0.00015208
  64         0.00033660
  65         0.00000787
  66        -0.00001035
  67        -0.00035355
  68         0.00110704
  69        -0.00003862
  70        -0.00031702
  71         0.00001605
  72         0.00009085
Sym=     5a  
Ene=    -5.1910
Spin= Alpha
Occup=    2.00000
   1        -0.09905610
   2         0.32924041
   3         0.07360800
   4         0.15923772
   5        -0.09094252
   6        -0.00141398
   7         0.00167248
   8        -0.00330471
   9        -0.00010552
  10         0.00353834
  11        -0.00655609
  12        -0.03446257
  13        -0.01073594
  14         0.00016212
  15         0.00110093
  16        -0.12117216
  17         0.33926441
  18         0.04932779
  19         0.00100378
  20         0.13237275
  21         0.00510639
  22         0.02700616
  23        -0.00774616
  24         0.00005617
  25         0.01788948
  26         0.00565251
  27        -0.03255126
  28        -0.00836316
  29         0.00044191
  30         0.00159017
  31         0.01340594
  32        -0.01075474
  33         0.02210080
  34        -0.01283752
  35        -0.12116266
  36         0.33924249
  37         0.04932692
  38        -0.00102704
  39        -0.13233607
  40        -0.00509648
  41        -0.02700880
  42         0.00775034
  43        -0.00005532
  44         0.01789117
  45         0.00565012
  46        -0.03254866
  47        -0.00836039
  48         0.00044277
  49         0.00158780
  50         0.01711634
  51        -0.01007709
  52        -0.09903329
  53         0.32916005
  54         0.07359701
  55        -0.15920136
  56         0.09092680
  57         0.00140786
  58        -0.00167124
  59         0.00330872
  60         0.00010502
  61         0.00353780
  62        -0.00655354
  63        -0.03445427
  64        -0.01073452
  65         0.00016314
  66         0.00109889
  67         0.01711849
  68        -0.01007875
  69         0.02209475
  70        -0.01283267
  71         0.01340184
  72        -0.01075380
Sym=     6a  
Ene=    -5.1280
Spin= Alpha
Occup=    2.00000
   1         0.12148860
   2        -0.40678428
   3        -0.06952440
   4        -0.17864459
   5         0.11318063
   6         0.00201565
   7        -0.00683376
   8        -0.01537224
   9        -0.00068102
  10        -0.00145836
  11         0.00620914
  12         0.04158696
  13         0.01249959
  14        -0.00017069
  15        -0.00141024
  16         0.08030175
  17        -0.22419755
  18        -0.03641139
  19         0.16146223
  20        -0.14428818
  21        -0.00343684
  22         0.00581076
  23        -0.00589740
  24        -0.00015067
  25         0.00548134
  26        -0.00812404
  27         0.02126320
  28         0.01883748
  29         0.00048587
  30        -0.00106023
  31        -0.02067306
  32         0.00698714
  33        -0.02662664
  34         0.02217090
  35        -0.08032657
  36         0.22427046
  37         0.03642534
  38         0.16146084
  39        -0.14430779
  40        -0.00342824
  41         0.00580676
  42        -0.00589752
  43        -0.00015059
  44        -0.00547785
  45         0.00812459
  46        -0.02126975
  47        -0.01883767
  48        -0.00048397
  49         0.00105844
  50        -0.00858962
  51         0.00393212
  52        -0.12150219
  53         0.40682406
  54         0.06953318
  55        -0.17866662
  56         0.11319520
  57         0.00200839
  58        -0.00683286
  59        -0.01537137
  60        -0.00067985
  61         0.00145934
  62        -0.00620869
  63        -0.04159118
  64        -0.01250215
  65         0.00017196
  66         0.00140809
  67         0.00859477
  68        -0.00393427
  69         0.02662902
  70        -0.02217183
  71         0.02067413
  72        -0.00698895
Sym=     7a  
Ene=    -4.8469
Spin= Alpha
Occup=    2.00000
   1        -0.08251211
   2         0.29116209
   3         0.09179554
   4         0.06187138
   5        -0.09924083
   6        -0.00300821
   7         0.00701908
   8        -0.00369303
   9        -0.00005000
  10        -0.01102675
  11        -0.00090868
  12        -0.02546211
  13        -0.00461684
  14         0.00004126
  15         0.00103195
  16         0.07036513
  17        -0.21531370
  18        -0.09285116
  19        -0.40639649
  20         0.00751492
  21        -0.00503149
  22        -0.00910974
  23        -0.02990598
  24        -0.00126998
  25        -0.01737115
  26         0.00082726
  27         0.01468036
  28        -0.03252486
  29        -0.00173678
  30        -0.00104347
  31         0.02194485
  32        -0.01373095
  33         0.01881894
  34        -0.01266889
  35         0.07036436
  36        -0.21531298
  37        -0.09284789
  38         0.40640867
  39        -0.00753414
  40         0.00503619
  41         0.00911208
  42         0.02989934
  43         0.00126794
  44        -0.01737265
  45         0.00082845
  46         0.01468019
  47        -0.03252311
  48        -0.00173504
  49        -0.00104348
  50        -0.01647961
  51         0.00052170
  52        -0.08251224
  53         0.29115724
  54         0.09179004
  55        -0.06188070
  56         0.09924294
  57         0.00300294
  58        -0.00701732
  59         0.00369116
  60         0.00005027
  61        -0.01102531
  62        -0.00090823
  63        -0.02546197
  64        -0.00461814
  65         0.00004169
  66         0.00103040
  67        -0.01648141
  68         0.00052451
  69         0.01881813
  70        -0.01266906
  71         0.02194325
  72        -0.01373053
Sym=     8a  
Ene=    -4.4445
Spin= Alpha
Occup=    1.39382
   1        -0.03441505
   2         0.13152549
   3         0.01559085
   4         0.07834550
   5         0.20013522
   6         0.00872487
   7         0.01450874
   8         0.01734978
   9         0.00085779
  10         0.00734861
  11        -0.01264380
  12        -0.01074002
  13         0.01494243
  14         0.00084844
  15         0.00011173
  16         0.09527039
  17        -0.33799648
  18        -0.11448693
  19         0.10547231
  20         0.35827406
  21         0.01516154
  22        -0.00686298
  23         0.07573254
  24         0.00282290
  25        -0.00233140
  26         0.00203446
  27         0.02297909
  28        -0.00207106
  29        -0.00046324
  30        -0.00095909
  31         0.00150162
  32         0.00875557
  33         0.04457040
  34        -0.01465132
  35        -0.09526520
  36         0.33797808
  37         0.11449048
  38         0.10548559
  39         0.35825143
  40         0.01515413
  41        -0.00685980
  42         0.07573705
  43         0.00282169
  44         0.00233367
  45        -0.00203811
  46        -0.02297678
  47         0.00207022
  48         0.00046296
  49         0.00095861
  50        -0.10826838
  51         0.05509928
  52         0.03442387
  53        -0.13155936
  54        -0.01560150
  55         0.07834473
  56         0.20017402
  57         0.00871854
  58         0.01451249
  59         0.01734861
  60         0.00085643
  61        -0.00734772
  62         0.01264332
  63         0.01074303
  64        -0.01494492
  65        -0.00084833
  66        -0.00011172
  67         0.10826260
  68        -0.05510159
  69        -0.04457946
  70         0.01465248
  71        -0.00150405
  72        -0.00875561
Sym=     9a  
Ene=     0.0000
Spin= Alpha
Occup=    0.60618
   1         0.04249281
   2        -0.16145367
   3        -0.07921314
   4        -0.10492512
   5        -0.19779398
   6        -0.00898319
   7        -0.03056374
   8        -0.00722105
   9        -0.00067804
  10        -0.00950454
  11         0.01807331
  12         0.01343841
  13        -0.01480999
  14        -0.00091678
  15         0.00001149
  16        -0.07093594
  17         0.27748561
  18         0.10358431
  19        -0.20712966
  20        -0.40853409
  21        -0.01842825
  22        -0.02794070
  23        -0.01522590
  24        -0.00095188
  25        -0.01191124
  26         0.01324201
  27        -0.02536651
  28         0.02010701
  29         0.00097769
  30         0.00198136
  31        -0.00083405
  32        -0.00605896
  33        -0.04476099
  34         0.02286883
  35        -0.07093056
  36         0.27746266
  37         0.10357360
  38         0.20714678
  39         0.40849338
  40         0.01841458
  41         0.02795393
  42         0.01523195
  43         0.00095208
  44        -0.01190690
  45         0.01323702
  46        -0.02536337
  47         0.02010898
  48         0.00097837
  49         0.00198093
  50         0.11874606
  51        -0.02597474
  52         0.04250412
  53        -0.16149883
  54        -0.07922666
  55         0.10492509
  56         0.19785138
  57         0.00897718
  58         0.03056584
  59         0.00721673
  60         0.00067773
  61        -0.00950267
  62         0.01807240
  63         0.01344209
  64        -0.01481407
  65        -0.00091659
  66         0.00001124
  67         0.11873813
  68        -0.02597682
  69        -0.04477475
  70         0.02286868
  71        -0.00083646
  72        -0.00605778
Sym=    10a  
Ene=    -4.1968
Spin= Alpha
Occup=    0.00000
   1         0.09986924
   2        -0.37817676
   3        -0.18785982
   4         0.34222924
   5        -0.19997241
   6        -0.00321213
   7        -0.02803589
   8         0.01943270
   9         0.00038080
  10         0.01145704
  11        -0.00526015
  12         0.02788546
  13        -0.02757183
  14        -0.00131066
  15        -0.00183695
  16        -0.02392069
  17         0.06764633
  18         0.10277369
  19        -0.06968118
  20         0.19848324
  21         0.00672230
  22        -0.00842178
  23         0.07513926
  24         0.00278014
  25        -0.01789253
  26         0.00392073
  27        -0.00508701
  28         0.00360590
  29        -0.00005495
  30         0.00044802
  31        -0.09105040
  32         0.01757025
  33        -0.08413682
  34         0.01377397
  35         0.02391002
  36        -0.06762000
  37        -0.10275242
  38        -0.06956477
  39         0.19835100
  40         0.00671348
  41        -0.00841897
  42         0.07512901
  43         0.00277709
  44         0.01788934
  45        -0.00392577
  46         0.00508398
  47        -0.00361608
  48         0.00005442
  49        -0.00044780
  50        -0.02521461
  51         0.02393456
  52        -0.09979712
  53         0.37790546
  54         0.18776047
  55         0.34194667
  56        -0.19974695
  57        -0.00318603
  58        -0.02801634
  59         0.01943204
  60         0.00037979
  61        -0.01144988
  62         0.00525449
  63        -0.02786370
  64         0.02754781
  65         0.00130837
  66         0.00183370
  67         0.02518981
  68        -0.02393602
  69         0.08406074
  70        -0.01376187
  71         0.09098092
  72        -0.01756498
Sym=    11a  
Ene=    -4.1682
Spin= Alpha
Occup=    0.00000
   1        -0.08751705
   2         0.32596599
   3         0.12523960
   4        -0.37341015
   5         0.23391076
   6         0.00410766
   7         0.01870465
   8        -0.00488977
   9         0.00005676
  10        -0.00748949
  11         0.00779688
  12        -0.02573836
  13         0.02775145
  14         0.00134489
  15         0.00185674
  16         0.00813344
  17        -0.01622466
  18        -0.01581491
  19         0.11334899
  20        -0.20223384
  21        -0.00629895
  22         0.00098176
  23        -0.02432285
  24        -0.00092365
  25         0.00429545
  26         0.00669262
  27         0.00288076
  28         0.01304797
  29         0.00052335
  30         0.00034054
  31         0.09181190
  32        -0.00963996
  33         0.08350374
  34        -0.01183558
  35         0.00814774
  36        -0.01626363
  37        -0.01589853
  38        -0.11339957
  39         0.20241231
  40         0.00629083
  41        -0.00098832
  42         0.02439395
  43         0.00092417
  44         0.00431125
  45         0.00668848
  46         0.00288398
  47         0.01304426
  48         0.00052361
  49         0.00034088
  50         0.04375779
  51        -0.00436904
  52        -0.08759614
  53         0.32626393
  54         0.12539860
  55         0.37369798
  56        -0.23403776
  57        -0.00408894
  58        -0.01872531
  59         0.00490903
  60        -0.00005626
  61        -0.00749713
  62         0.00780069
  63        -0.02575986
  64         0.02777225
  65         0.00134518
  66         0.00185620
  67         0.04378390
  68        -0.00439349
  69         0.08356299
  70        -0.01184539
  71         0.09188920
  72        -0.00965634
Sym=    12a  
Ene=    -4.0877
Spin= Alpha
Occup=    0.00000
   1        -0.01061832
   2         0.04427206
   3         0.00936710
   4        -0.31059522
   5        -0.44646585
   6        -0.02124830
   7        -0.03435751
   8        -0.02704359
   9        -0.00149087
  10         0.01305767
  11        -0.01986746
  12        -0.00263180
  13        -0.00194848
  14         0.00016184
  15        -0.00079207
  16         0.04908609
  17        -0.16085110
  18        -0.17609000
  19        -0.07579630
  20         0.16017299
  21         0.00516613
  22        -0.07554294
  23        -0.00988306
  24        -0.00136974
  25         0.02469210
  26        -0.02628931
  27         0.00605662
  28         0.00516911
  29         0.00048000
  30        -0.00137135
  31         0.08641934
  32        -0.02447104
  33        -0.09955155
  34         0.00702966
  35        -0.04908580
  36         0.16085069
  37         0.17611990
  38        -0.07586615
  39         0.16007811
  40         0.00516110
  41        -0.07551404
  42        -0.00992455
  43        -0.00136998
  44        -0.02467397
  45         0.02626901
  46        -0.00605656
  47        -0.00516788
  48        -0.00047988
  49         0.00136829
  50        -0.07474838
  51         0.00362347
  52         0.01061334
  53        -0.04424313
  54        -0.00941283
  55        -0.31034149
  56        -0.44617483
  57        -0.02120914
  58        -0.03430916
  59        -0.02703134
  60        -0.00148833
  61        -0.01304583
  62         0.01985014
  63         0.00263153
  64         0.00194804
  65        -0.00016288
  66         0.00079002
  67         0.07471047
  68        -0.00361858
  69         0.09948055
  70        -0.00701922
  71        -0.08635211
  72         0.02445107
Sym=    13a  
Ene=    -4.0468
Spin= Alpha
Occup=    0.00000
   1         0.00805213
   2        -0.04388910
   3         0.07029389
   4         0.34251386
   5         0.42434343
   6         0.02081577
   7         0.07718276
   8         0.02195851
   9         0.00185551
  10        -0.02016135
  11         0.02763761
  12         0.00056852
  13        -0.00039935
  14        -0.00032828
  15         0.00119869
  16        -0.00815432
  17         0.02614873
  18        -0.02814122
  19        -0.12826415
  20        -0.20649178
  21        -0.00962064
  22         0.03941540
  23        -0.07992076
  24        -0.00255719
  25        -0.02836404
  26         0.03414946
  27        -0.00155374
  28         0.00006056
  29        -0.00040248
  30         0.00158898
  31        -0.09542314
  32         0.03099488
  33         0.10168578
  34        -0.01551125
  35        -0.00819187
  36         0.02627141
  37        -0.02801455
  38         0.12821231
  39         0.20661849
  40         0.00962176
  41        -0.03946843
  42         0.07992255
  43         0.00255520
  44        -0.02838108
  45         0.03416848
  46        -0.00155840
  47         0.00005712
  48        -0.00040287
  49         0.00158855
  50         0.08020917
  51        -0.01521880
  52         0.00805762
  53        -0.04391172
  54         0.07029315
  55        -0.34270042
  56        -0.42464021
  57        -0.02080747
  58        -0.07720937
  59        -0.02197871
  60        -0.00185721
  61        -0.02017038
  62         0.02765031
  63         0.00056985
  64        -0.00039873
  65        -0.00032938
  66         0.00119724
  67         0.08026787
  68        -0.01522514
  69         0.10175005
  70        -0.01551695
  71        -0.09547684
  72         0.03101183
Sym=    14a  
Ene=    -4.0064
Spin= Alpha
Occup=    0.00000
   1        -0.00000038
   2         0.00000163
   3        -0.00000427
   4        -0.00571392
   5        -0.01677131
   6         0.43589018
   7        -0.00031417
   8        -0.00091545
   9         0.02381423
  10        -0.00057668
  11         0.00103283
  12        -0.00045604
  13        -0.00077564
  14         0.02544166
  15        -0.01548869
  16         0.00000006
  17        -0.00000165
  18         0.00000466
  19        -0.00505174
  20        -0.01484579
  21         0.38589098
  22        -0.00103553
  23        -0.00303341
  24         0.07894786
  25        -0.00002149
  26        -0.00196640
  27         0.00198764
  28        -0.00042161
  29         0.00092233
  30         0.02946218
  31         0.00000116
  32        -0.00000035
  33        -0.00000003
  34         0.00000011
  35         0.00000046
  36        -0.00000348
  37         0.00000637
  38        -0.00505743
  39        -0.01482811
  40         0.38583970
  41        -0.00103186
  42        -0.00303780
  43         0.07893665
  44         0.00002047
  45         0.00196309
  46        -0.00198397
  47         0.00042382
  48        -0.00092944
  49        -0.02945509
  50        -0.00000017
  51         0.00000108
  52         0.00000095
  53        -0.00000396
  54        -0.00000641
  55        -0.00571014
  56        -0.01674049
  57         0.43574200
  58        -0.00030937
  59        -0.00091612
  60         0.02380292
  61         0.00057770
  62        -0.00103145
  63         0.00045461
  64         0.00077400
  65        -0.02543554
  66         0.01548630
  67        -0.00000032
  68         0.00000080
  69        -0.00000047
  70        -0.00000019
  71         0.00000064
  72        -0.00000044
Sym=    15a  
Ene=    -3.9536
Spin= Alpha
Occup=    0.00000
   1         0.00000047
   2        -0.00000146
   3        -0.00000235
   4         0.00737930
   5         0.02168021
   6        -0.56337804
   7         0.00060399
   8         0.00178074
   9        -0.04627612
  10         0.00052919
  11        -0.00096566
  12         0.00043702
  13         0.00070815
  14        -0.02334107
  15         0.01448728
  16        -0.00000083
  17         0.00000257
  18         0.00000490
  19         0.00344842