[Molden Format]
[N_Atoms]
                   10
[Atoms] (AU)
C1          1      6          -4.53248921      1.79195169      0.00479990
C2          2      6          -2.62781535      0.13830906     -0.03388279
H3          3      1          -6.47066792      1.12374454     -0.04629829
H4          4      1          -4.18375915      3.81278702      0.08711637
C5          5      6           0.02745772      0.99435499      0.03380720
H6          6      1          -3.05443992     -1.86886355     -0.11669059
C7          7      6           1.93213158     -0.65928765     -0.00476211
H8          8      1           0.45410119      3.00152759      0.11653941
H9          9      1           1.58342042     -2.68014187     -0.08696520
H10        10      1           3.87032918      0.00890061      0.04633608
[Charge] (Mulliken)
 -0.40949563237860165     
 -0.14198157029899328     
  0.17936484075440384     
  0.17915516663773556     
 -0.14198134780987903     
  0.19295864308977162     
 -0.40949578214796833     
  0.19295857327653243     
  0.17915339411870845     
  0.17936371475747626     
[GTO] (AU)
   1
   s   6
  3.047524880E+03  1.834737132E-03
  4.573695180E+02  1.403732281E-02
  1.039486850E+02  6.884262227E-02
  2.921015530E+01  2.321844432E-01
  9.286662960E+00  4.679413484E-01
  3.163926960E+00  3.623119853E-01
   s   3
  7.868272350E+00 -1.193324198E-01
  1.881288540E+00 -1.608541517E-01
  5.442492580E-01  1.143456438E+00
   s   1
  1.687144782E-01  1.000000000E+00
   p   3
  7.868272350E+00  6.899906659E-02
  1.881288540E+00  3.164239610E-01
  5.442492580E-01  7.443082909E-01
   p   1
  1.687144782E-01  1.000000000E+00
   d   1
  8.000000000E-01  1.000000000E+00
 
   2
   s   6
  3.047524880E+03  1.834737132E-03
  4.573695180E+02  1.403732281E-02
  1.039486850E+02  6.884262227E-02
  2.921015530E+01  2.321844432E-01
  9.286662960E+00  4.679413484E-01
  3.163926960E+00  3.623119853E-01
   s   3
  7.868272350E+00 -1.193324198E-01
  1.881288540E+00 -1.608541517E-01
  5.442492580E-01  1.143456438E+00
   s   1
  1.687144782E-01  1.000000000E+00
   p   3
  7.868272350E+00  6.899906659E-02
  1.881288540E+00  3.164239610E-01
  5.442492580E-01  7.443082909E-01
   p   1
  1.687144782E-01  1.000000000E+00
   d   1
  8.000000000E-01  1.000000000E+00
 
   3
   s   3
  1.873113696E+01  3.349460434E-02
  2.825394365E+00  2.347269535E-01
  6.401216923E-01  8.137573261E-01
   s   1
  1.612777588E-01  1.000000000E+00
 
   4
   s   3
  1.873113696E+01  3.349460434E-02
  2.825394365E+00  2.347269535E-01
  6.401216923E-01  8.137573261E-01
   s   1
  1.612777588E-01  1.000000000E+00
 
   5
   s   6
  3.047524880E+03  1.834737132E-03
  4.573695180E+02  1.403732281E-02
  1.039486850E+02  6.884262227E-02
  2.921015530E+01  2.321844432E-01
  9.286662960E+00  4.679413484E-01
  3.163926960E+00  3.623119853E-01
   s   3
  7.868272350E+00 -1.193324198E-01
  1.881288540E+00 -1.608541517E-01
  5.442492580E-01  1.143456438E+00
   s   1
  1.687144782E-01  1.000000000E+00
   p   3
  7.868272350E+00  6.899906659E-02
  1.881288540E+00  3.164239610E-01
  5.442492580E-01  7.443082909E-01
   p   1
  1.687144782E-01  1.000000000E+00
   d   1
  8.000000000E-01  1.000000000E+00
 
   6
   s   3
  1.873113696E+01  3.349460434E-02
  2.825394365E+00  2.347269535E-01
  6.401216923E-01  8.137573261E-01
   s   1
  1.612777588E-01  1.000000000E+00
 
   7
   s   6
  3.047524880E+03  1.834737132E-03
  4.573695180E+02  1.403732281E-02
  1.039486850E+02  6.884262227E-02
  2.921015530E+01  2.321844432E-01
  9.286662960E+00  4.679413484E-01
  3.163926960E+00  3.623119853E-01
   s   3
  7.868272350E+00 -1.193324198E-01
  1.881288540E+00 -1.608541517E-01
  5.442492580E-01  1.143456438E+00
   s   1
  1.687144782E-01  1.000000000E+00
   p   3
  7.868272350E+00  6.899906659E-02
  1.881288540E+00  3.164239610E-01
  5.442492580E-01  7.443082909E-01
   p   1
  1.687144782E-01  1.000000000E+00
   d   1
  8.000000000E-01  1.000000000E+00
 
   8
   s   3
  1.873113696E+01  3.349460434E-02
  2.825394365E+00  2.347269535E-01
  6.401216923E-01  8.137573261E-01
   s   1
  1.612777588E-01  1.000000000E+00
 
   9
   s   3
  1.873113696E+01  3.349460434E-02
  2.825394365E+00  2.347269535E-01
  6.401216923E-01  8.137573261E-01
   s   1
  1.612777588E-01  1.000000000E+00
 
  10
   s   3
  1.873113696E+01  3.349460434E-02
  2.825394365E+00  2.347269535E-01
  6.401216923E-01  8.137573261E-01
   s   1
  1.612777588E-01  1.000000000E+00
 
[MO]
Sym=     1a  
Ene=   -11.2370
Spin= Alpha
Occup=    2.00000
   1         0.04821767
   2         0.00100288
   3         0.00269861
   4        -0.00012561
   5         0.00006168
   6         0.00000072
   7         0.00130480
   8        -0.00049010
   9        -0.00000176
  10        -0.00020187
  11        -0.00026349
  12        -0.00020445
  13        -0.00001728
  14        -0.00000063
  15        -0.00000285
  16         0.70227002
  17         0.01945164
  18        -0.00640250
  19         0.00007457
  20         0.00002126
  21         0.00000180
  22         0.00076644
  23        -0.00085560
  24        -0.00002288
  25        -0.00152520
  26        -0.00144524
  27        -0.00176423
  28        -0.00025647
  29        -0.00000625
  30         0.00001083
  31        -0.00001818
  32         0.00029058
  33        -0.00011029
  34        -0.00017128
  35         0.70218642
  36         0.01944935
  37        -0.00640111
  38        -0.00007454
  39        -0.00002124
  40        -0.00000179
  41        -0.00076660
  42         0.00085548
  43         0.00002281
  44        -0.00152512
  45        -0.00144512
  46        -0.00176404
  47        -0.00025647
  48        -0.00000623
  49         0.00001080
  50        -0.00018529
  51         0.00103458
  52         0.04821645
  53         0.00100286
  54         0.00269825
  55         0.00012561
  56        -0.00006167
  57        -0.00000073
  58        -0.00130467
  59         0.00049004
  60         0.00000174
  61        -0.00020184
  62        -0.00026346
  63        -0.00020445
  64        -0.00001729
  65        -0.00000063
  66        -0.00000285
  67        -0.00018529
  68         0.00103441
  69        -0.00011028
  70        -0.00017126
  71        -0.00001818
  72         0.00029059
Sym=     2a  
Ene=   -11.2360
Spin= Alpha
Occup=    2.00000
   1        -0.05220403
   2        -0.00132896
   3        -0.00252846
   4         0.00006788
   5        -0.00010203
   6        -0.00000304
   7        -0.00097101
   8         0.00054678
   9         0.00000833
  10         0.00032748
  11         0.00035764
  12         0.00013601
  13        -0.00002257
  14         0.00000203
  15         0.00000956
  16        -0.70215727
  17        -0.01931712
  18         0.01136698
  19        -0.00018272
  20        -0.00014340
  21        -0.00000791
  22         0.00125715
  23         0.00095094
  24         0.00005303
  25         0.00068574
  26         0.00103087
  27         0.00158561
  28         0.00002288
  29        -0.00001274
  30        -0.00002438
  31         0.00003010
  32         0.00000247
  33         0.00004115
  34         0.00007101
  35         0.70224011
  36         0.01931941
  37        -0.01136773
  38        -0.00018272
  39        -0.00014340
  40        -0.00000791
  41         0.00125704
  42         0.00095107
  43         0.00005301
  44        -0.00068592
  45        -0.00103104
  46        -0.00158582
  47        -0.00002291
  48         0.00001275
  49         0.00002436
  50         0.00004431
  51        -0.00144316
  52         0.05221539
  53         0.00132924
  54         0.00252874
  55         0.00006789
  56        -0.00010204
  57        -0.00000303
  58        -0.00097118
  59         0.00054684
  60         0.00000827
  61        -0.00032752
  62        -0.00035768
  63        -0.00013604
  64         0.00002257
  65        -0.00000204
  66        -0.00000955
  67        -0.00004433
  68         0.00144327
  69        -0.00004116
  70        -0.00007102
  71        -0.00003010
  72        -0.00000242
Sym=     3a  
Ene=   -11.2250
Spin= Alpha
Occup=    2.00000
   1        -0.59519335
   2        -0.01643268
   3         0.00667864
   4        -0.00003799
   5         0.00000997
   6        -0.00000011
   7         0.00016257
   8        -0.00025395
   9        -0.00000764
  10         0.00104908
  11         0.00111907
  12         0.00151177
  13         0.00012261
  14        -0.00000229
  15        -0.00001587
  16         0.04067909
  17         0.00139734
  18        -0.00252254
  19        -0.00006747
  20         0.00004907
  21         0.00000101
  22         0.00067538
  23        -0.00024695
  24        -0.00000066
  25        -0.00001681
  26         0.00007275
  27        -0.00004672
  28        -0.00000530
  29         0.00000025
  30         0.00000525
  31         0.00009131
  32        -0.00130658
  33         0.00010359
  34        -0.00129131
  35         0.05569092
  36         0.00185279
  37        -0.00373816
  38         0.00009850
  39        -0.00009353
  40        -0.00000230
  41        -0.00096416
  42         0.00059007
  43         0.00001002
  44         0.00005267
  45         0.00010889
  46        -0.00006723
  47         0.00000316
  48         0.00000194
  49         0.00000787
  50         0.00005182
  51         0.00032783
  52        -0.79517633
  53        -0.02197097
  54         0.00922428
  55         0.00004516
  56        -0.00001242
  57         0.00000011
  58        -0.00040633
  59         0.00038712
  60         0.00000957
  61         0.00141194
  62         0.00148255
  63         0.00201524
  64         0.00016605
  65        -0.00000277
  66        -0.00002149
  67         0.00005316
  68         0.00034228
  69         0.00012272
  70        -0.00171471
  71         0.00011942
  72        -0.00169509
Sym=     4a  
Ene=   -11.2250
Spin= Alpha
Occup=    2.00000
   1         0.79494464
   2         0.02200793
   3        -0.00998998
   4         0.00003093
   5        -0.00001010
   6         0.00000001
   7        -0.00088808
   8         0.00050892
   9         0.00000796
  10        -0.00143798
  11        -0.00145023
  12        -0.00200326
  13        -0.00017166
  14         0.00000196
  15         0.00002236
  16        -0.05907504
  17        -0.00181584
  18         0.00467449
  19         0.00011978
  20        -0.00016473
  21        -0.00000477
  22        -0.00112136
  23         0.00125256
  24         0.00003351
  25        -0.00024404
  26        -0.00013870
  27         0.00007943
  28        -0.00002926
  29        -0.00000602
  30        -0.00001009
  31        -0.00011286
  32         0.00156598
  33        -0.00008276
  34         0.00168758
  35         0.04521330
  36         0.00134831
  37        -0.00377365
  38         0.00009590
  39        -0.00014422
  40        -0.00000429
  41        -0.00088543
  42         0.00113211
  43         0.00003189
  44         0.00023887
  45         0.00011255
  46        -0.00006305
  47         0.00002957
  48         0.00000571
  49         0.00000820
  50        -0.00001219
  51        -0.00009835
  52        -0.59488289
  53        -0.01648194
  54         0.00770166
  55         0.00001897
  56        -0.00000687
  57        -0.00000002
  58        -0.00080621
  59         0.00041665
  60         0.00000544
  61         0.00108385
  62         0.00107588
  63         0.00149574
  64         0.00013014
  65        -0.00000124
  66        -0.00001695
  67        -0.00000292
  68         0.00000193
  69         0.00005019
  70        -0.00125504
  71         0.00008253
  72        -0.00113405
Sym=     5a  
Ene=    -1.0848
Spin= Alpha
Occup=    2.00000
   1        -0.09062872
   2         0.17045741
   3         0.13706634
   4         0.06402803
   5        -0.04518115
   6        -0.00090002
   7         0.00877342
   8        -0.00713767
   9        -0.00015986
  10         0.00762080
  11         0.00518523
  12        -0.00739404
  13        -0.00537332
  14         0.00002057
  15         0.00048925
  16        -0.13178967
  17         0.25294226
  18         0.16621267
  19         0.01384920
  20         0.04995845
  21         0.00210331
  22         0.01199417
  23        -0.01120458
  24        -0.00027384
  25         0.01347652
  26         0.00658935
  27        -0.01112010
  28        -0.00063013
  29         0.00034806
  30         0.00077980
  31         0.04000625
  32         0.00461208
  33         0.04478112
  34         0.00723431
  35        -0.13178947
  36         0.25294188
  37         0.16621224
  38        -0.01384938
  39        -0.04995838
  40        -0.00210040
  41        -0.01199451
  42         0.01120458
  43         0.00027375
  44         0.01347657
  45         0.00658930
  46        -0.01112012
  47        -0.00062998
  48         0.00034847
  49         0.00077886
  50         0.06428598
  51         0.00608002
  52        -0.09062802
  53         0.17045612
  54         0.13706565
  55        -0.06402826
  56         0.04518134
  57         0.00089703
  58        -0.00877342
  59         0.00713778
  60         0.00015924
  61         0.00762076
  62         0.00518512
  63        -0.00739402
  64        -0.00537358
  65         0.00002109
  66         0.00048836
  67         0.06428585
  68         0.00608010
  69         0.04478010
  70         0.00723424
  71         0.04000525
  72         0.00461193
Sym=     6a  
Ene=    -0.9954
Spin= Alpha
Occup=    2.00000
   1         0.12721577
   2        -0.24024685
   3        -0.19617987
   4        -0.04995283
   5         0.05129755
   6         0.00131984
   7        -0.00793758
   8        -0.00318511
   9        -0.00022638
  10        -0.00959102
  11        -0.00931362
  12         0.01060942
  13         0.00387286
  14        -0.00015691
  15        -0.00083574
  16         0.08618975
  17        -0.16689913
  18        -0.11747666
  19         0.12532287
  20        -0.05830011
  21        -0.00060170
  22         0.03289463
  23         0.00126895
  24         0.00047969
  25         0.00209603
  26        -0.00782622
  27         0.00571602
  28         0.00916322
  29         0.00029767
  30        -0.00048217
  31        -0.07468861
  32        -0.02043090
  33        -0.06976856
  34        -0.01141002
  35        -0.08619088
  36         0.16690135
  37         0.11747802
  38         0.12532267
  39        -0.05830019
  40        -0.00059744
  41         0.03289429
  42         0.00126939
  43         0.00047982
  44        -0.00209593
  45         0.00782630
  46        -0.00571614
  47        -0.00916308
  48        -0.00029696
  49         0.00048137
  50        -0.04547006
  51        -0.00521602
  52        -0.12721557
  53         0.24024646
  54         0.19618018
  55        -0.04995405
  56         0.05129829
  57         0.00131661
  58        -0.00793751
  59        -0.00318488
  60        -0.00022624
  61         0.00959104
  62         0.00931354
  63        -0.01060946
  64        -0.00387333
  65         0.00015749
  66         0.00083440
  67         0.04547113
  68         0.00521619
  69         0.06976757
  70         0.01140993
  71         0.07468733
  72         0.02043046
Sym=     7a  
Ene=    -0.8128
Spin= Alpha
Occup=    2.00000
   1        -0.10717279
   2         0.20680202
   3         0.20497421
   4        -0.08706147
   5         0.03979186
   6         0.00039086
   7        -0.03683419
   8         0.01678059
   9         0.00016327
  10         0.00818539
  11         0.01139438
  12        -0.00920238
  13         0.00875709
  14         0.00060058
  15         0.00103153
  16         0.07272968
  17        -0.14564035
  18        -0.13561891
  19        -0.16500627
  20         0.04100604
  21        -0.00058172
  22        -0.04487001
  23         0.02481267
  24         0.00036746
  25        -0.00766154
  26        -0.00563262
  27         0.00617278
  28        -0.01354641
  29        -0.00073062
  30        -0.00070317
  31         0.12193766
  32         0.05231688
  33         0.10147043
  34         0.04438354
  35         0.07272784
  36        -0.14563664
  37        -0.13561574
  38         0.16500766
  39        -0.04100396
  40         0.00058778
  41         0.04487043
  42        -0.02481153
  43        -0.00036523
  44        -0.00766174
  45        -0.00563231
  46         0.00617268
  47        -0.01354649
  48        -0.00073039
  49        -0.00070287
  50        -0.06455979
  51        -0.02144488
  52        -0.10717273
  53         0.20680167
  54         0.20497526
  55         0.08706028
  56        -0.03979060
  57        -0.00038648
  58         0.03683390
  59        -0.01678058
  60        -0.00016143
  61         0.00818547
  62         0.01139441
  63        -0.00920244
  64         0.00875651
  65         0.00060042
  66         0.00103038
  67        -0.06455655
  68        -0.02144370
  69         0.10146944
  70         0.04438298
  71         0.12193679
  72         0.05231670
Sym=     8a  
Ene=    -0.7512
Spin= Alpha
Occup=    2.00000
   1        -0.04963335
   2         0.09652215
   3         0.10000910
   4        -0.03748963
   5         0.14096136
   6         0.00493187
   7        -0.01771087
   8         0.04739626
   9         0.00159132
  10         0.00428608
  11         0.00753807
  12        -0.00464630
  13         0.00968557
  14         0.00050811
  15         0.00066941
  16         0.08361396
  17        -0.16389235
  18        -0.17152891
  19         0.05651218
  20         0.17015173
  21         0.00728495
  22         0.01202470
  23         0.07060928
  24         0.00287356
  25         0.00353267
  26        -0.01539456
  27         0.00666648
  28        -0.00122163
  29        -0.00009498
  30        -0.00099762
  31         0.04139539
  32         0.01996709
  33         0.11487013
  34         0.06526404
  35        -0.08361463
  36         0.16389365
  37         0.17153013
  38         0.05651137
  39         0.17015167
  40         0.00728049
  41         0.01202437
  42         0.07060962
  43         0.00287139
  44        -0.00353249
  45         0.01539461
  46        -0.00666662
  47         0.00122195
  48         0.00009486
  49         0.00099658
  50        -0.16709753
  51        -0.08545505
  52         0.04963473
  53        -0.09652466
  54        -0.10001281
  55        -0.03749316
  56         0.14096159
  57         0.00492443
  58        -0.01771230
  59         0.04739660
  60         0.00158892
  61        -0.00428636
  62        -0.00753824
  63         0.00464648
  64        -0.00968556
  65        -0.00050788
  66        -0.00066864
  67         0.16709788
  68         0.08545503
  69        -0.11487064
  70        -0.06526440
  71        -0.04139870
  72        -0.01996870
Sym=     9a  
Ene=    -0.6340
Spin= Alpha
Occup=    2.00000
   1         0.00749825
   2        -0.01350198
   3        -0.01642123
   4        -0.08832145
   5        -0.23544252
   6        -0.01021588
   7        -0.04126810
   8        -0.10366208
   9        -0.00452921
  10         0.00698234
  11        -0.01122376
  12         0.00110749
  13        -0.00356547
  14        -0.00004865
  15        -0.00059534
  16        -0.00828677
  17         0.01395297
  18         0.01606490
  19        -0.20948377
  20        -0.13108361
  21        -0.00778721
  22        -0.06551123
  23        -0.06528863
  24        -0.00337012
  25        -0.00529252
  26         0.00797237
  27        -0.00087817
  28        -0.00064115
  29        -0.00009123
  30         0.00038526
  31         0.08309942
  32         0.05328277
  33        -0.15004534
  34        -0.09862255
  35        -0.00847300
  36         0.01434635
  37         0.01630124
  38         0.20999196
  39         0.12998214
  40         0.00774565
  41         0.06569217
  42         0.06494713
  43         0.00335626
  44        -0.00532456
  45         0.00797031
  46        -0.00088376
  47        -0.00067302
  48        -0.00009271
  49         0.00038478
  50         0.10433467
  51         0.06421915
  52         0.00759632
  53        -0.01368799
  54        -0.01675014
  55         0.08673865
  56         0.23577896
  57         0.01019538
  58         0.04059830
  59         0.10373178
  60         0.00451726
  61         0.00692977
  62        -0.01123539
  63         0.00111973
  64        -0.00366029
  65        -0.00005278
  66        -0.00059687
  67         0.10395192
  68         0.06391613
  69        -0.15019602
  70        -0.09874993
  71         0.08216971
  72         0.05265741
Sym=    10a  
Ene=    -0.6337
Spin= Alpha
Occup=    2.00000
   1         0.01776681
   2        -0.03369990
   3        -0.05964088
   4         0.28657297
   5        -0.06314168
   6         0.00132296
   7         0.12128298
   8        -0.01348971
   9         0.00106880
  10        -0.00943057
  11        -0.00222313
  12         0.00221118
  13        -0.01724345
  14        -0.00084002
  15        -0.00042383
  16        -0.03376203
  17         0.07135579
  18         0.04267274
  19        -0.09308646
  20         0.20065601
  21         0.00649954
  22        -0.03313890
  23         0.06225865
  24         0.00196072
  25        -0.00581194
  26        -0.00044309
  27        -0.00099785
  28        -0.00584414
  29        -0.00029784
  30        -0.00005218
  31        -0.16778698
  32        -0.11308048
  33        -0.02875193
  34        -0.02395066
  35         0.03371558
  36        -0.07127718
  37        -0.04258286
  38        -0.09193083
  39         0.20137689
  40         0.00653563
  41        -0.03277750
  42         0.06261849
  43         0.00197770
  44         0.00578255
  45         0.00048707
  46         0.00099300
  47         0.00584084
  48         0.00029688
  49         0.00005432
  50        -0.06998116
  51        -0.05539455
  52        -0.01772490
  53         0.03362399
  54         0.05955031
  55         0.28705487
  56        -0.06184582
  57         0.00138928
  58         0.12150852
  59        -0.01291884
  60         0.00109777
  61         0.00946904
  62         0.00216146
  63        -0.00220506
  64         0.01722327
  65         0.00083894
  66         0.00042069
  67         0.07055592
  68         0.05574865
  69         0.02792637
  70         0.02340736
  71         0.16824173
  72         0.11337254
Sym=    11a  
Ene=    -0.5461
Spin= Alpha
Occup=    2.00000
   1         0.02170506
   2        -0.04771762
   3        -0.02143824
   4        -0.24260577
   5         0.15977844
   6         0.00296653
   7        -0.08766184
   8         0.06351837
   9         0.00129332
  10         0.00385517
  11         0.00573787
  12        -0.00026310
  13         0.01558618
  14         0.00066205
  15         0.00047194
  16         0.00265398
  17        -0.00664162
  18         0.02057300
  19         0.19394278
  20        -0.23550508
  21        -0.00652807
  22         0.07377488
  23        -0.11240962
  24        -0.00336231
  25        -0.00512914
  26         0.01351754
  27        -0.00091102
  28         0.02224797
  29         0.00079245
  30         0.00093370
  31         0.09668434
  32         0.08998678
  33         0.06104325
  34         0.06026399
  35         0.00265360
  36        -0.00664079
  37         0.02057398
  38        -0.19393957
  39         0.23550181
  40         0.00650185
  41        -0.07377414
  42         0.11240765
  43         0.00334961
  44        -0.00512896
  45         0.01351707
  46        -0.00091099
  47         0.02224814
  48         0.00079204
  49         0.00093400
  50         0.13200818
  51         0.11065030
  52         0.02170564
  53        -0.04771904
  54        -0.02143941
  55         0.24260657
  56        -0.15977018
  57        -0.00296003
  58         0.08766294
  59        -0.06351398
  60        -0.00129276
  61         0.00385575
  62         0.00573742
  63        -0.00026311
  64         0.01558576
  65         0.00066190
  66         0.00047139
  67         0.13200555
  68         0.11064887
  69         0.06103800
  70         0.06025976
  71         0.09668682
  72         0.08998844
Sym=    12a  
Ene=    -0.5409
Spin= Alpha
Occup=    2.00000
   1        -0.00475578
   2         0.01123818
   3        -0.00461985
   4        -0.09680887
   5        -0.26875788
   6        -0.01160936
   7        -0.07179222
   8        -0.14655518
   9        -0.00657953
  10         0.01957394
  11        -0.02273410
  12         0.00002872
  13        -0.00122727
  14         0.00024783
  15        -0.00102863
  16         0.01794193
  17        -0.03530852
  18        -0.04359973
  19        -0.05588375
  20         0.15078636
  21         0.00506795
  22         0.00943252
  23         0.09508035
  24         0.00378090
  25         0.01144822
  26        -0.01712640
  27         0.00139078
  28        -0.00257541
  29         0.00005254
  30        -0.00085776
  31         0.12418394
  32         0.09055662
  33        -0.18239576
  34        -0.13823679
  35        -0.01794278
  36         0.03531046
  37         0.04360317
  38        -0.05590849
  39         0.15078016
  40         0.00506274
  41         0.00942300
  42         0.09507569
  43         0.00377748
  44        -0.01144699
  45         0.01712525
  46        -0.00139089
  47         0.00257647
  48        -0.00005279
  49         0.00085655
  50        -0.11116814
  51        -0.07497837
  52         0.00475676
  53        -0.01124043
  54         0.00461776
  55        -0.09679606
  56        -0.26876300
  57        -0.01159432
  58        -0.07178616
  59        -0.14655720
  60        -0.00657148
  61        -0.01957301
  62         0.02273381
  63        -0.00002887
  64         0.00122798
  65        -0.00024848
  66         0.00102719
  67         0.11116109
  68         0.07497323
  69         0.18239569
  70         0.13823804
  71        -0.12417657
  72        -0.09055155
Sym=    13a  
Ene=    -0.4924
Spin= Alpha
Occup=    2.00000
   1        -0.00139879
   2         0.00355116
   3         0.01459864
   4         0.16532468
   5         0.11640132
   6         0.00664457
   7         0.10940506
   8         0.07361209
   9         0.00426529
  10        -0.02274212
  11         0.02131791
  12         0.00021005
  13        -0.00589595
  14        -0.00057361
  15         0.00086143
  16         0.01500207
  17        -0.03355784
  18        -0.04367526
  19        -0.24375634
  20        -0.16564286
  21        -0.00956281
  22        -0.10830182
  23        -0.12313809
  24        -0.00615425
  25        -0.02175804
  26         0.02481109
  27         0.00030524
  28        -0.00407390
  29        -0.00048983
  30         0.00103659
  31        -0.14188349
  32        -0.11989305
  33         0.11379880
  34         0.10442552
  35         0.01500178
  36        -0.03355729
  37        -0.04367608
  38         0.24375393
  39         0.16564908
  40         0.00956041
  41         0.10830350
  42         0.12314336
  43         0.00615221
  44        -0.02175848
  45         0.02481191
  46         0.00030510
  47        -0.00407355
  48        -0.00048995
  49         0.00103552
  50         0.14252432
  51         0.12287805
  52        -0.00139853
  53         0.00355049
  54         0.01459861
  55        -0.16532986
  56        -0.11641522
  57        -0.00664085
  58        -0.10940990
  59        -0.07362094
  60        -0.00426364
  61        -0.02274334
  62         0.02131936
  63         0.00020992
  64        -0.00589589
  65        -0.00057382
  66         0.00086007
  67         0.14252914
  68         0.12288091
  69         0.11380843
  70         0.10443423
  71        -0.14189058
  72        -0.11989949
Sym=    14a  
Ene=    -0.4366
Spin= Alpha
Occup=    2.00000
   1         0.00000101
   2        -0.00000201
   3        -0.00000347
   4        -0.00292719
   5        -0.00857854
   6         0.22301645
   7        -0.00219209
   8        -0.00643065
   9         0.16716350
  10        -0.00032105
  11         0.00073956
  12        -0.00041823
  13        -0.00039954
  14         0.01417406
  15        -0.01108994
  16        -0.00000025
  17         0.00000029
  18         0.00000227
  19        -0.00383545
  20        -0.01128845
  21         0.29328462
  22        -0.00270987
  23        -0.00796929
  24         0.20706052
  25         0.00002551
  26        -0.00084062
  27         0.00081521
  28        -0.00012050
  29        -0.00114296
  30         0.01260330
  31         0.00000287
  32         0.00000364
  33        -0.00000040
  34         0.00000049
  35         0.00000007
  36        -0.00000030
  37         0.00000126
  38        -0.00384729
  39        -0.01126572
  40         0.29328588
  41        -0.00271540
  42        -0.00795418
  43         0.20706133
  44        -0.00002633
  45         0.00084049
  46        -0.00081407
  47         0.00012279
  48         0.00114315
  49        -0.01260336
  50         0.00000369
  51         0.00000292
  52         0.00000150
  53        -0.00000297
  54        -0.00000527
  55        -0.00291911
  56        -0.00857002
  57         0.22301745
  58        -0.00218953
  59        -0.00642297
  60         0.16716401
  61         0.00032204
  62        -0.00073874
  63         0.00041696
  64         0.00039925
  65        -0.01417409
  66         0.01109004
  67         0.00000402
  68         0.00000328
  69        -0.00000023
  70         0.00000072
  71         0.00000242
  72         0.00000267
Sym=    15a  
Ene=    -0.3173
Spin= Alpha
Occup=    2.00000
   1         0.00000065
   2        -0.00000105
   3        -0.00000386
   4         0.00398362
   5         0.01170706
   6        -0.30424185
   7         0.00363005
   8         0.01067020
   9        -0.27729521
  10         0.00028750
  11        -0.00079121
  12         0.00050385
  13         0.00033244
  14        -0.01268424
  15         0.01186420
  16        -0.00000007
  17        -0.00000030
  18         0.00000244
  19         0.00306969