[Molden Format]
[N_Atoms]
                   10
[Atoms] (AU)
C1          1      6          -4.53248921      1.79195169      0.00479990
C2          2      6          -2.62781535      0.13830906     -0.03388279
H3          3      1          -6.47066792      1.12374454     -0.04629829
H4          4      1          -4.18375915      3.81278702      0.08711637
C5          5      6           0.02745772      0.99435499      0.03380720
H6          6      1          -3.05443992     -1.86886355     -0.11669059
C7          7      6           1.93213158     -0.65928765     -0.00476211
H8          8      1           0.45410119      3.00152759      0.11653941
H9          9      1           1.58342042     -2.68014187     -0.08696520
H10        10      1           3.87032918      0.00890061      0.04633608
[Charge] (Mulliken)
   0.0000000000000000     
   0.0000000000000000     
   0.0000000000000000     
   0.0000000000000000     
   0.0000000000000000     
   0.0000000000000000     
   0.0000000000000000     
   0.0000000000000000     
   0.0000000000000000     
   0.0000000000000000     
[GTO] (AU)
   1
   s   6
  3.047524880E+03  1.834737132E-03
  4.573695180E+02  1.403732281E-02
  1.039486850E+02  6.884262227E-02
  2.921015530E+01  2.321844432E-01
  9.286662960E+00  4.679413484E-01
  3.163926960E+00  3.623119853E-01
   s   3
  7.868272350E+00 -1.193324198E-01
  1.881288540E+00 -1.608541517E-01
  5.442492580E-01  1.143456438E+00
   s   1
  1.687144782E-01  1.000000000E+00
   p   3
  7.868272350E+00  6.899906659E-02
  1.881288540E+00  3.164239610E-01
  5.442492580E-01  7.443082909E-01
   p   1
  1.687144782E-01  1.000000000E+00
   d   1
  8.000000000E-01  1.000000000E+00
 
   2
   s   6
  3.047524880E+03  1.834737132E-03
  4.573695180E+02  1.403732281E-02
  1.039486850E+02  6.884262227E-02
  2.921015530E+01  2.321844432E-01
  9.286662960E+00  4.679413484E-01
  3.163926960E+00  3.623119853E-01
   s   3
  7.868272350E+00 -1.193324198E-01
  1.881288540E+00 -1.608541517E-01
  5.442492580E-01  1.143456438E+00
   s   1
  1.687144782E-01  1.000000000E+00
   p   3
  7.868272350E+00  6.899906659E-02
  1.881288540E+00  3.164239610E-01
  5.442492580E-01  7.443082909E-01
   p   1
  1.687144782E-01  1.000000000E+00
   d   1
  8.000000000E-01  1.000000000E+00
 
   3
   s   3
  1.873113696E+01  3.349460434E-02
  2.825394365E+00  2.347269535E-01
  6.401216923E-01  8.137573261E-01
   s   1
  1.612777588E-01  1.000000000E+00
 
   4
   s   3
  1.873113696E+01  3.349460434E-02
  2.825394365E+00  2.347269535E-01
  6.401216923E-01  8.137573261E-01
   s   1
  1.612777588E-01  1.000000000E+00
 
   5
   s   6
  3.047524880E+03  1.834737132E-03
  4.573695180E+02  1.403732281E-02
  1.039486850E+02  6.884262227E-02
  2.921015530E+01  2.321844432E-01
  9.286662960E+00  4.679413484E-01
  3.163926960E+00  3.623119853E-01
   s   3
  7.868272350E+00 -1.193324198E-01
  1.881288540E+00 -1.608541517E-01
  5.442492580E-01  1.143456438E+00
   s   1
  1.687144782E-01  1.000000000E+00
   p   3
  7.868272350E+00  6.899906659E-02
  1.881288540E+00  3.164239610E-01
  5.442492580E-01  7.443082909E-01
   p   1
  1.687144782E-01  1.000000000E+00
   d   1
  8.000000000E-01  1.000000000E+00
 
   6
   s   3
  1.873113696E+01  3.349460434E-02
  2.825394365E+00  2.347269535E-01
  6.401216923E-01  8.137573261E-01
   s   1
  1.612777588E-01  1.000000000E+00
 
   7
   s   6
  3.047524880E+03  1.834737132E-03
  4.573695180E+02  1.403732281E-02
  1.039486850E+02  6.884262227E-02
  2.921015530E+01  2.321844432E-01
  9.286662960E+00  4.679413484E-01
  3.163926960E+00  3.623119853E-01
   s   3
  7.868272350E+00 -1.193324198E-01
  1.881288540E+00 -1.608541517E-01
  5.442492580E-01  1.143456438E+00
   s   1
  1.687144782E-01  1.000000000E+00
   p   3
  7.868272350E+00  6.899906659E-02
  1.881288540E+00  3.164239610E-01
  5.442492580E-01  7.443082909E-01
   p   1
  1.687144782E-01  1.000000000E+00
   d   1
  8.000000000E-01  1.000000000E+00
 
   8
   s   3
  1.873113696E+01  3.349460434E-02
  2.825394365E+00  2.347269535E-01
  6.401216923E-01  8.137573261E-01
   s   1
  1.612777588E-01  1.000000000E+00
 
   9
   s   3
  1.873113696E+01  3.349460434E-02
  2.825394365E+00  2.347269535E-01
  6.401216923E-01  8.137573261E-01
   s   1
  1.612777588E-01  1.000000000E+00
 
  10
   s   3
  1.873113696E+01  3.349460434E-02
  2.825394365E+00  2.347269535E-01
  6.401216923E-01  8.137573261E-01
   s   1
  1.612777588E-01  1.000000000E+00
 
[MO]
Sym=     1a  
Ene=   -11.3530
Spin= Alpha
Occup=    2.00000
   1         0.41267162
   2         0.00878301
   3         0.00094529
   4         0.00132770
   5        -0.00101913
   6        -0.00002183
   7         0.00082915
   8        -0.00063645
   9        -0.00001363
  10        -0.00000000
  11        -0.00000000
  12        -0.00000000
  13         0.00000000
  14         0.00000000
  15         0.00000000
  16         0.56785875
  17         0.01213537
  18         0.00135584
  19         0.00040798
  20         0.00105334
  21         0.00004587
  22         0.00025479
  23         0.00065781
  24         0.00002864
  25         0.00000000
  26        -0.00000000
  27        -0.00000000
  28        -0.00000000
  29        -0.00000000
  30        -0.00000000
  31         0.00095171
  32         0.00106263
  33         0.00098585
  34         0.00110076
  35         0.56785631
  36         0.01213532
  37         0.00135584
  38        -0.00040800
  39        -0.00105333
  40        -0.00004581
  41        -0.00025480
  42        -0.00065781
  43        -0.00002861
  44        -0.00000000
  45         0.00000000
  46         0.00000000
  47         0.00000000
  48         0.00000000
  49         0.00000000
  50         0.00135423
  51         0.00151207
  52         0.41266562
  53         0.00878289
  54         0.00094529
  55        -0.00132770
  56         0.00101913
  57         0.00002175
  58        -0.00082915
  59         0.00063645
  60         0.00001359
  61         0.00000000
  62         0.00000000
  63         0.00000000
  64        -0.00000000
  65        -0.00000000
  66        -0.00000000
  67         0.00135422
  68         0.00151206
  69         0.00098583
  70         0.00110073
  71         0.00095168
  72         0.00106261
Sym=     2a  
Ene=   -11.3480
Spin= Alpha
Occup=    2.00000
   1        -0.56106599
   2        -0.01111379
   3        -0.00036386
   4        -0.00071696
   5         0.00072090
   6         0.00001835
   7        -0.00044774
   8         0.00045020
   9         0.00001146
  10        -0.00000000
  11         0.00000000
  12         0.00000000
  13         0.00000000
  14         0.00000000
  15         0.00000000
  16        -0.42316841
  17        -0.00821135
  18        -0.00008414
  19         0.00212800
  20        -0.00075291
  21        -0.00000110
  22         0.00132893
  23        -0.00047019
  24        -0.00000069
  25        -0.00000000
  26         0.00000000
  27         0.00000000
  28        -0.00000000
  29        -0.00000000
  30         0.00000000
  31        -0.00119543
  32        -0.00133476
  33        -0.00116115
  34        -0.00129648
  35         0.42317563
  36         0.00821149
  37         0.00008414
  38         0.00212799
  39        -0.00075291
  40        -0.00000104
  41         0.00132893
  42        -0.00047019
  43        -0.00000065
  44        -0.00000000
  45         0.00000000
  46         0.00000000
  47        -0.00000000
  48         0.00000000
  49         0.00000000
  50        -0.00084412
  51        -0.00094251
  52         0.56106670
  53         0.01111382
  54         0.00036387
  55        -0.00071698
  56         0.00072091
  57         0.00001830
  58        -0.00044775
  59         0.00045021
  60         0.00001143
  61        -0.00000000
  62         0.00000000
  63         0.00000000
  64         0.00000000
  65        -0.00000000
  66         0.00000000
  67         0.00084414
  68         0.00094253
  69         0.00116114
  70         0.00129647
  71         0.00119541
  72         0.00133474
Sym=     3a  
Ene=   -11.3330
Spin= Alpha
Occup=    2.00000
   1         0.56968725
   2         0.00972557
   3        -0.00136627
   4        -0.00094371
   5         0.00072333
   6         0.00001547
   7        -0.00058935
   8         0.00045172
   9         0.00000966
  10        -0.00000000
  11        -0.00000000
  12         0.00000000
  13        -0.00000000
  14         0.00000000
  15         0.00000000
  16        -0.41391346
  17        -0.00710363
  18         0.00095105
  19        -0.00175665
  20         0.00068133
  21         0.00000322
  22        -0.00109703
  23         0.00042549
  24         0.00000201
  25         0.00000000
  26        -0.00000000
  27        -0.00000000
  28         0.00000000
  29        -0.00000000
  30        -0.00000000
  31         0.00097678
  32         0.00109063
  33         0.00094853
  34         0.00105908
  35        -0.41390291
  36        -0.00710345
  37         0.00095102
  38         0.00175667
  39        -0.00068131
  40        -0.00000315
  41         0.00109704
  42        -0.00042548
  43        -0.00000197
  44        -0.00000000
  45        -0.00000000
  46        -0.00000000
  47         0.00000000
  48         0.00000000
  49         0.00000000
  50        -0.00068047
  51        -0.00075978
  52         0.56968391
  53         0.00972553
  54        -0.00136625
  55         0.00094370
  56        -0.00072332
  57        -0.00001542
  58         0.00058934
  59        -0.00045171
  60        -0.00000963
  61         0.00000000
  62        -0.00000000
  63        -0.00000000
  64        -0.00000000
  65        -0.00000000
  66        -0.00000000
  67        -0.00068045
  68        -0.00075976
  69         0.00094852
  70         0.00105907
  71         0.00097677
  72         0.00109061
Sym=     4a  
Ene=   -11.3280
Spin= Alpha
Occup=    2.00000
   1        -0.42420533
   2        -0.00690997
   3         0.00138696
   4         0.00093752
   5        -0.00094309
   6        -0.00002401
   7         0.00058548
   8        -0.00058896
   9        -0.00001499
  10         0.00000000
  11         0.00000000
  12         0.00000000
  13        -0.00000000
  14         0.00000000
  15         0.00000000
  16         0.56270414
  17         0.00894283
  18        -0.00208827
  19        -0.00012315
  20        -0.00110522
  21        -0.00004413
  22        -0.00007690
  23        -0.00069021
  24        -0.00002756
  25        -0.00000000
  26         0.00000000
  27         0.00000000
  28         0.00000000
  29         0.00000000
  30         0.00000000
  31        -0.00066000
  32        -0.00073693
  33        -0.00070301
  34        -0.00078495
  35        -0.56270892
  36        -0.00894290
  37         0.00208829
  38        -0.00012312
  39        -0.00110523
  40        -0.00004408
  41        -0.00007689
  42        -0.00069022
  43        -0.00002753
  44         0.00000000
  45        -0.00000000
  46        -0.00000000
  47        -0.00000000
  48        -0.00000000
  49        -0.00000000
  50         0.00086976
  51         0.00097113
  52         0.42421476
  53         0.00691013
  54        -0.00138698
  55         0.00093754
  56        -0.00094310
  57        -0.00002395
  58         0.00058549
  59        -0.00058896
  60        -0.00001495
  61         0.00000000
  62        -0.00000000
  63         0.00000000
  64         0.00000000
  65         0.00000000
  66         0.00000000
  67        -0.00086977
  68        -0.00097114
  69         0.00070302
  70         0.00078496
  71         0.00066001
  72         0.00073694
Sym=     5a  
Ene=    -1.5870
Spin= Alpha
Occup=    2.00000
   1        -0.09428527
   2         0.11879450
   3         0.13427913
   4         0.04182966
   5        -0.02172905
   6        -0.00028836
   7         0.02612260
   8        -0.01356978
   9        -0.00018008
  10        -0.00000000
  11        -0.00000000
  12        -0.00000000
  13        -0.00000000
  14        -0.00000000
  15        -0.00000000
  16        -0.13225753
  17         0.16488065
  18         0.18640236
  19         0.02093754
  20         0.02207734
  21         0.00112373
  22         0.01307548
  23         0.01378729
  24         0.00070177
  25        -0.00000000
  26        -0.00000000
  27         0.00000000
  28         0.00000000
  29         0.00000000
  30         0.00000000
  31         0.04334474
  32         0.04839664
  33         0.05128842
  34         0.05726617
  35        -0.13225704
  36         0.16488007
  37         0.18640171
  38        -0.02093813
  39        -0.02207705
  40        -0.00112200
  41        -0.01307585
  42        -0.01378711
  43        -0.00070069
  44         0.00000000
  45        -0.00000000
  46        -0.00000000
  47        -0.00000000
  48        -0.00000000
  49        -0.00000000
  50         0.06779717
  51         0.07569905
  52        -0.09428402
  53         0.11879321
  54         0.13427767
  55        -0.04182963
  56         0.02172899
  57         0.00028688
  58        -0.02612258
  59         0.01356974
  60         0.00017915
  61        -0.00000000
  62        -0.00000000
  63         0.00000000
  64         0.00000000
  65         0.00000000
  66         0.00000000
  67         0.06779691
  68         0.07569876
  69         0.05128742
  70         0.05726505
  71         0.04334376
  72         0.04839555
Sym=     6a  
Ene=    -1.3521
Spin= Alpha
Occup=    2.00000
   1         0.13341021
   2        -0.17222227
   3        -0.19460090
   4        -0.00313503
   5         0.01766091
   6         0.00063877
   7        -0.00195782
   8         0.01102923
   9         0.00039891
  10         0.00000000
  11        -0.00000000
  12         0.00000000
  13         0.00000000
  14        -0.00000000
  15        -0.00000000
  16         0.07303216
  17        -0.09220164
  18        -0.10421680
  19         0.09449718
  20        -0.03844971
  21        -0.00024115
  22         0.05901344
  23        -0.02401182
  24        -0.00015060
  25         0.00000000
  26        -0.00000000
  27         0.00000000
  28         0.00000000
  29        -0.00000000
  30        -0.00000000
  31        -0.08386584
  32        -0.09364055
  33        -0.07519091
  34        -0.08395454
  35        -0.07303363
  36         0.09220360
  37         0.10421901
  38         0.09449677
  39        -0.03844973
  40        -0.00023922
  41         0.05901318
  42        -0.02401183
  43        -0.00014939
  44         0.00000000
  45        -0.00000000
  46        -0.00000000
  47         0.00000000
  48        -0.00000000
  49        -0.00000000
  50        -0.03526064
  51        -0.03937033
  52        -0.13341053
  53         0.17222304
  54         0.19460177
  55        -0.00313560
  56         0.01766109
  57         0.00063774
  58        -0.00195818
  59         0.01102934
  60         0.00039827
  61         0.00000000
  62        -0.00000000
  63        -0.00000000
  64         0.00000000
  65        -0.00000000
  66        -0.00000000
  67         0.03526200
  68         0.03937185
  69         0.07519100
  70         0.08395464
  71         0.08386557
  72         0.09364025
Sym=     7a  
Ene=    -1.0225
Spin= Alpha
Occup=    2.00000
   1        -0.03153941
   2         0.04306365
   3         0.04862041
   4         0.02589780
   5         0.12456899
   6         0.00513074
   7         0.01617316
   8         0.07779327
   9         0.00320415
  10         0.00000000
  11         0.00000000
  12         0.00000000
  13        -0.00000000
  14        -0.00000000
  15         0.00000000
  16         0.07240681
  17        -0.10182155
  18        -0.11491382
  19         0.03889841
  20         0.16635809
  21         0.00690732
  22         0.02429204
  23         0.10389054
  24         0.00431362
  25         0.00000000
  26         0.00000000
  27        -0.00000000
  28         0.00000000
  29        -0.00000000
  30         0.00000000
  31        -0.00850219
  32        -0.00949314
  33         0.08875009
  34         0.09909407
  35        -0.07240626
  36         0.10182072
  37         0.11491289
  38         0.03889941
  39         0.16635797
  40         0.00690485
  41         0.02429266
  42         0.10389047
  43         0.00431207
  44        -0.00000000
  45        -0.00000000
  46        -0.00000000
  47        -0.00000000
  48         0.00000000
  49        -0.00000000
  50        -0.13799148
  51        -0.15407463
  52         0.03153880
  53        -0.04306292
  54        -0.04861958
  55         0.02589759
  56         0.12456890
  57         0.00512673
  58         0.01617303
  59         0.07779321
  60         0.00320164
  61         0.00000000
  62         0.00000000
  63         0.00000000
  64         0.00000000
  65         0.00000000
  66         0.00000000
  67         0.13799101
  68         0.15407410
  69        -0.08874931
  70        -0.09909320
  71         0.00850170
  72         0.00949259
Sym=     8a  
Ene=    -1.0188
Spin= Alpha
Occup=    2.00000
   1        -0.09612549
   2         0.14018889
   3         0.15813816
   4        -0.11768719
   5         0.04135069
   6         0.00005046
   7        -0.07349559
   8         0.02582348
   9         0.00003151
  10        -0.00000000
  11        -0.00000000
  12        -0.00000000
  13         0.00000000
  14        -0.00000000
  15        -0.00000000
  16         0.07706706
  17        -0.10732343
  18        -0.12113915
  19        -0.11731399
  20         0.02153998
  21        -0.00070538
  22        -0.07326253
  23         0.01345171
  24        -0.00044051
  25         0.00000000
  26         0.00000000
  27         0.00000000
  28         0.00000000
  29         0.00000000
  30         0.00000000
  31         0.11900365
  32         0.13287374
  33         0.08034967
  34         0.08971457
  35         0.07706735
  36        -0.10732371
  37        -0.12113947
  38         0.11731359
  39        -0.02154015
  40         0.00071176
  41         0.07326227
  42        -0.01345182
  43         0.00044450
  44         0.00000000
  45         0.00000000
  46         0.00000000
  47         0.00000000
  48        -0.00000000
  49        -0.00000000
  50        -0.05044373
  51        -0.05632303
  52        -0.09612582
  53         0.14018974
  54         0.15813911
  55         0.11768805
  56        -0.04135231
  57        -0.00004482
  58         0.07349612
  59        -0.02582449
  60        -0.00002799
  61        -0.00000000
  62        -0.00000000
  63        -0.00000000
  64         0.00000000
  65         0.00000000
  66         0.00000000
  67        -0.05044341
  68        -0.05632268
  69         0.08035125
  70         0.08971633
  71         0.11900448
  72         0.13287466
Sym=     9a  
Ene=    -0.7905
Spin= Alpha
Occup=    2.00000
   1         0.01296631
   2        -0.02479702
   3        -0.02788553
   4        -0.09573924
   5        -0.20479488
   6        -0.00913698
   7        -0.05978910
   8        -0.12789430
   9        -0.00570604
  10        -0.00000000
  11        -0.00000000
  12        -0.00000000
  13         0.00000000
  14         0.00000000
  15         0.00000000
  16        -0.01359972
  17         0.02473196
  18         0.02782665
  19        -0.13512712
  20        -0.11234793
  21        -0.00609909
  22        -0.08438682
  23        -0.07016123
  24        -0.00380888
  25        -0.00000000
  26        -0.00000000
  27        -0.00000000
  28         0.00000000
  29        -0.00000000
  30        -0.00000000
  31         0.07601580
  32         0.08487557
  33        -0.13269151
  34        -0.14815694
  35        -0.01360166
  36         0.02473469
  37         0.02782974
  38         0.13512923
  39         0.11234732
  40         0.00608060
  41         0.08438813
  42         0.07016084
  43         0.00379733
  44         0.00000000
  45        -0.00000000
  46        -0.00000000
  47         0.00000000
  48         0.00000000
  49         0.00000000
  50         0.08581872
  51         0.09582104
  52         0.01296648
  53        -0.02479759
  54        -0.02788617
  55         0.09573235
  56         0.20479565
  57         0.00911968
  58         0.05978480
  59         0.12789478
  60         0.00569524
  61        -0.00000000
  62         0.00000000
  63        -0.00000000
  64        -0.00000000
  65        -0.00000000
  66        -0.00000000
  67         0.08582059
  68         0.09582314
  69        -0.13269100
  70        -0.14815637
  71         0.07601053
  72         0.08486969
Sym=    10a  
Ene=    -0.7153
Spin= Alpha
Occup=    2.00000
   1         0.00403455
   2        -0.01996458
   3        -0.02231410
   4         0.26632107
   5        -0.04796991
   6         0.00164296
   7         0.16631737
   8        -0.02995718
   9         0.00102602
  10        -0.00000000
  11        -0.00000000
  12        -0.00000000
  13        -0.00000000
  14         0.00000000
  15         0.00000000
  16        -0.07130475
  17         0.10635894
  18         0.11994199
  19        -0.08877215
  20         0.10588723
  21         0.00291251
  22        -0.05543816
  23         0.06612652
  24         0.00181886
  25        -0.00000000
  26        -0.00000000
  27        -0.00000000
  28         0.00000000
  29        -0.00000000
  30        -0.00000000
  31        -0.15783362
  32        -0.17622940
  33        -0.01394685
  34        -0.01557238
  35         0.07130382
  36        -0.10635706
  37        -0.11993987
  38        -0.08877041
  39         0.10589195
  40         0.00291311
  41        -0.05543707
  42         0.06612947
  43         0.00181924
  44         0.00000000
  45         0.00000000
  46         0.00000000
  47         0.00000000
  48         0.00000000
  49         0.00000000
  50         0.00826144
  51         0.00922433
  52        -0.00403286
  53         0.01996187
  54         0.02231106
  55         0.26632403
  56        -0.04796449
  57         0.00165442
  58         0.16631921
  59        -0.02995380
  60         0.00103319
  61         0.00000000
  62         0.00000000
  63        -0.00000000
  64         0.00000000
  65        -0.00000000
  66        -0.00000000
  67        -0.00825801
  68        -0.00922049
  69         0.01394350
  70         0.01556864
  71         0.15783630
  72         0.17623239
Sym=    11a  
Ene=    -0.6582
Spin= Alpha
Occup=    2.00000
   1        -0.00000039
   2         0.00000024
   3         0.00000027
   4        -0.00301202
   5        -0.00885626
   6         0.22992805
   7        -0.00188101
   8        -0.00553073
   9         0.14358995
  10         0.00000000
  11         0.00000000
  12         0.00000000
  13         0.00000000
  14        -0.00000000
  15         0.00000000
  16        -0.00000019
  17         0.00000012
  18         0.00000014
  19        -0.00423007
  20        -0.01240973
  21         0.32263757
  22        -0.00264168
  23        -0.00774987
  24         0.20148700
  25        -0.00000000
  26         0.00000000
  27        -0.00000000
  28        -0.00000000
  29        -0.00000000
  30        -0.00000000
  31         0.00000234
  32         0.00000262
  33        -0.00000626
  34        -0.00000699
  35        -0.00000166
  36         0.00000197
  37         0.00000223
  38        -0.00422029
  39        -0.01240321
  40         0.32263820
  41        -0.00263557
  42        -0.00774580
  43         0.20148739
  44        -0.00000000
  45        -0.00000000
  46        -0.00000000
  47        -0.00000000
  48        -0.00000000
  49        -0.00000000
  50        -0.00000166
  51        -0.00000186
  52         0.00000025
  53        -0.00000167
  54        -0.00000186
  55        -0.00302213
  56        -0.00882402
  57         0.22992951
  58        -0.00188732
  59        -0.00551060
  60         0.14359086
  61        -0.00000000
  62         0.00000000
  63        -0.00000000
  64        -0.00000000
  65        -0.00000000
  66        -0.00000000
  67        -0.00000057
  68        -0.00000064
  69        -0.00000575
  70        -0.00000642
  71        -0.00000265
  72        -0.00000295
Sym=    12a  
Ene=    -0.5905
Spin= Alpha
Occup=    2.00000
   1         0.00907955
   2        -0.00399959
   3        -0.00464733
   4         0.04406027
   5         0.24346401
   6         0.00995268
   7         0.02751562
   8         0.15204315
   9         0.00621544
  10        -0.00000000
  11         0.00000000
  12         0.00000000
  13         0.00000000
  14         0.00000000
  15         0.00000000
  16        -0.01020519
  17         0.03121275
  18         0.03496944
  19         0.06402224
  20        -0.17244435
  21        -0.00578888
  22         0.03998186
  23        -0.10769141
  24        -0.00361515
  25        -0.00000000
  26        -0.00000000
  27        -0.00000000
  28        -0.00000000
  29        -0.00000000
  30         0.00000000
  31        -0.09072444
  32        -0.10129853
  33         0.16856380
  34         0.18821021
  35         0.01020620
  36        -0.03121445
  37        -0.03497135
  38         0.06402524
  39        -0.17243871
  40        -0.00579266
  41         0.03998373
  42        -0.10768788
  43        -0.00361752
  44        -0.00000000
  45         0.00000000
  46         0.00000000
  47         0.00000000
  48         0.00000000
  49        -0.00000000
  50         0.12071332
  51         0.13478267
  52        -0.00907969
  53         0.00400000
  54         0.00464778
  55         0.04406298
  56         0.24346322
  57         0.00992468
  58         0.02751731
  59         0.15204265
  60         0.00619796
  61        -0.00000000
  62        -0.00000000
  63        -0.00000000
  64        -0.00000000
  65         0.00000000
  66         0.00000000
  67        -0.12070903
  68        -0.13477788
  69        -0.16856308
  70        -0.18820941
  71         0.09072479
  72         0.10129892
Sym=    13a  
Ene=    -0.5440
Spin= Alpha
Occup=    2.00000
   1         0.03754246
   2        -0.06063919
   3        -0.06831680
   4        -0.08570934
   5         0.18080037
   6         0.00583963
   7        -0.05352544
   8         0.11290974
   9         0.00364685
  10         0.00000000
  11         0.00000000
  12         0.00000000
  13        -0.00000000
  14        -0.00000000
  15        -0.00000000
  16         0.02490371
  17        -0.03296361
  18        -0.03723340
  19         0.01415265
  20        -0.26060134
  21        -0.00983507
  22         0.00883832
  23        -0.16274540
  24        -0.00614200
  25         0.00000000
  26         0.00000000
  27         0.00000000
  28        -0.00000000
  29         0.00000000
  30         0.00000000
  31        -0.01819989
  32        -0.02032112
  33         0.11075265
  34         0.12366106
  35         0.02490329
  36        -0.03296261
  37        -0.03723228
  38        -0.01415330
  39         0.26060412
  40         0.00983841
  41        -0.00883873
  42         0.16274714
  43         0.00614409
  44         0.00000000
  45         0.00000000
  46         0.00000000
  47        -0.00000000
  48        -0.00000000
  49        -0.00000000
  50         0.19235644
  51         0.21477592
  52         0.03754335
  53        -0.06064080
  54        -0.06831860
  55         0.08570636
  56        -0.18080528
  57        -0.00581040
  58         0.05352358
  59        -0.11291280
  60        -0.00362859
  61         0.00000000
  62         0.00000000
  63         0.00000000
  64         0.00000000
  65         0.00000000
  66         0.00000000
  67         0.19235867
  68         0.21477841
  69         0.11075628
  70         0.12366512
  71        -0.01820256
  72        -0.02032410
Sym=    14a  
Ene=    -0.5043
Spin= Alpha
Occup=    2.00000
   1         0.00000912
   2        -0.00001390
   3        -0.00001567
   4         0.00495978
   5         0.01475530
   6        -0.38327980
   7         0.00309738
   8         0.00921468
   9        -0.23935804
  10         0.00000000
  11         0.00000000
  12         0.00000000
  13         0.00000000
  14         0.00000000
  15        -0.00000000
  16        -0.00000448
  17         0.00001165
  18         0.00001306
  19         0.00323596
  20         0.00926127
  21        -0.24075264
  22         0.00202086
  23         0.00578366
  24        -0.15034990
  25        -0.00000000
  26        -0.00000000
  27        -0.00000000
  28        -0.00000000
  29        -0.00000000
  30         0.00000000
  31         0.00003797
  32         0.00004239
  33        -0.00001223
  34        -0.00001365
  35        -0.00000455
  36         0.00001050
  37         0.00001179
  38        -0.00323529
  39        -0.00926373
  40         0.24075215
  41        -0.00202044
  42        -0.00578519
  43         0.15034959
  44        -0.00000000
  45         0.00000000
  46         0.00000000
  47         0.00000000
  48        -0.00000000
  49        -0.00000000
  50        -0.00000734
  51        -0.00000819
  52         0.00000757
  53        -0.00001196
  54        -0.00001348
  55        -0.00497101
  56        -0.01472244
  57         0.38328065
  58        -0.00310439
  59        -0.00919416
  60         0.23935856
  61        -0.00000000
  62        -0.00000000
  63        -0.00000000
  64        -0.00000000
  65        -0.00000000
  66         0.00000000
  67        -0.00001670
  68        -0.00001865
  69        -0.00001894
  70        -0.00002115
  71         0.00003932
  72         0.00004390
Sym=    15a  
Ene=    -0.5007
Spin= Alpha
Occup=    2.00000
   1         0.03315321
   2        -0.04984391
   3        -0.05620382
   4        -0.22985207
   5         0.01799396
   6        -0.00221377
   7        -0.14354250
   8         0.01123722
   9        -0.00138250
  10        -0.00000000
  11        -0.00000000
  12         0.00000000
  13         0.00000000
  14         0.00000000
  15         0.00000000
  16        -0.01743850
  17         0.04486014
  18         0.05031871
  19         0.32457123