[Molden Format]
[N_Atoms]
                   14
[Atoms] (AU)
C1          1      6         -13.23913777      4.40861767     -0.03165291
C2          2      6         -11.02473780      5.60795125      0.11791891
H3          3      1         -14.98949659      5.46709106      0.11502763
H4          4      1         -13.33107295      2.37593376     -0.29971056
C5          5      6          -8.61261579      4.21599788     -0.07543787
H6          6      1         -11.01368290      7.64390438      0.38671355
C7          7      6          -6.39505997      5.42714225      0.07557015
H8          8      1          -8.64774579      2.17847628     -0.34427031
C9          9      6          -3.98293796      4.03520778     -0.11782442
H10        10      1          -6.35994886      7.46468275      0.34438369
C11        11      6          -1.76855689      5.23456026      0.03153953
H12        12      1          -3.99399286      1.99923575     -0.38646789
H13        13      1          -1.67660281      7.26728196      0.29940821
H14        14      1          -0.01817917      4.17610576     -0.11519770
[Charge] (Mulliken)
   0.0000000000000000     
   0.0000000000000000     
   0.0000000000000000     
   0.0000000000000000     
   0.0000000000000000     
   0.0000000000000000     
   0.0000000000000000     
   0.0000000000000000     
   0.0000000000000000     
   0.0000000000000000     
   0.0000000000000000     
   0.0000000000000000     
   0.0000000000000000     
   0.0000000000000000     
[GTO] (AU)
   1
   s   6
  3.047524880E+03  1.834737132E-03
  4.573695180E+02  1.403732281E-02
  1.039486850E+02  6.884262227E-02
  2.921015530E+01  2.321844432E-01
  9.286662960E+00  4.679413484E-01
  3.163926960E+00  3.623119853E-01
   s   3
  7.868272350E+00 -1.193324198E-01
  1.881288540E+00 -1.608541517E-01
  5.442492580E-01  1.143456438E+00
   s   1
  1.687144782E-01  1.000000000E+00
   p   3
  7.868272350E+00  6.899906659E-02
  1.881288540E+00  3.164239610E-01
  5.442492580E-01  7.443082909E-01
   p   1
  1.687144782E-01  1.000000000E+00
   d   1
  8.000000000E-01  1.000000000E+00
 
   2
   s   6
  3.047524880E+03  1.834737132E-03
  4.573695180E+02  1.403732281E-02
  1.039486850E+02  6.884262227E-02
  2.921015530E+01  2.321844432E-01
  9.286662960E+00  4.679413484E-01
  3.163926960E+00  3.623119853E-01
   s   3
  7.868272350E+00 -1.193324198E-01
  1.881288540E+00 -1.608541517E-01
  5.442492580E-01  1.143456438E+00
   s   1
  1.687144782E-01  1.000000000E+00
   p   3
  7.868272350E+00  6.899906659E-02
  1.881288540E+00  3.164239610E-01
  5.442492580E-01  7.443082909E-01
   p   1
  1.687144782E-01  1.000000000E+00
   d   1
  8.000000000E-01  1.000000000E+00
 
   3
   s   3
  1.873113696E+01  3.349460434E-02
  2.825394365E+00  2.347269535E-01
  6.401216923E-01  8.137573261E-01
   s   1
  1.612777588E-01  1.000000000E+00
 
   4
   s   3
  1.873113696E+01  3.349460434E-02
  2.825394365E+00  2.347269535E-01
  6.401216923E-01  8.137573261E-01
   s   1
  1.612777588E-01  1.000000000E+00
 
   5
   s   6
  3.047524880E+03  1.834737132E-03
  4.573695180E+02  1.403732281E-02
  1.039486850E+02  6.884262227E-02
  2.921015530E+01  2.321844432E-01
  9.286662960E+00  4.679413484E-01
  3.163926960E+00  3.623119853E-01
   s   3
  7.868272350E+00 -1.193324198E-01
  1.881288540E+00 -1.608541517E-01
  5.442492580E-01  1.143456438E+00
   s   1
  1.687144782E-01  1.000000000E+00
   p   3
  7.868272350E+00  6.899906659E-02
  1.881288540E+00  3.164239610E-01
  5.442492580E-01  7.443082909E-01
   p   1
  1.687144782E-01  1.000000000E+00
   d   1
  8.000000000E-01  1.000000000E+00
 
   6
   s   3
  1.873113696E+01  3.349460434E-02
  2.825394365E+00  2.347269535E-01
  6.401216923E-01  8.137573261E-01
   s   1
  1.612777588E-01  1.000000000E+00
 
   7
   s   6
  3.047524880E+03  1.834737132E-03
  4.573695180E+02  1.403732281E-02
  1.039486850E+02  6.884262227E-02
  2.921015530E+01  2.321844432E-01
  9.286662960E+00  4.679413484E-01
  3.163926960E+00  3.623119853E-01
   s   3
  7.868272350E+00 -1.193324198E-01
  1.881288540E+00 -1.608541517E-01
  5.442492580E-01  1.143456438E+00
   s   1
  1.687144782E-01  1.000000000E+00
   p   3
  7.868272350E+00  6.899906659E-02
  1.881288540E+00  3.164239610E-01
  5.442492580E-01  7.443082909E-01
   p   1
  1.687144782E-01  1.000000000E+00
   d   1
  8.000000000E-01  1.000000000E+00
 
   8
   s   3
  1.873113696E+01  3.349460434E-02
  2.825394365E+00  2.347269535E-01
  6.401216923E-01  8.137573261E-01
   s   1
  1.612777588E-01  1.000000000E+00
 
   9
   s   6
  3.047524880E+03  1.834737132E-03
  4.573695180E+02  1.403732281E-02
  1.039486850E+02  6.884262227E-02
  2.921015530E+01  2.321844432E-01
  9.286662960E+00  4.679413484E-01
  3.163926960E+00  3.623119853E-01
   s   3
  7.868272350E+00 -1.193324198E-01
  1.881288540E+00 -1.608541517E-01
  5.442492580E-01  1.143456438E+00
   s   1
  1.687144782E-01  1.000000000E+00
   p   3
  7.868272350E+00  6.899906659E-02
  1.881288540E+00  3.164239610E-01
  5.442492580E-01  7.443082909E-01
   p   1
  1.687144782E-01  1.000000000E+00
   d   1
  8.000000000E-01  1.000000000E+00
 
  10
   s   3
  1.873113696E+01  3.349460434E-02
  2.825394365E+00  2.347269535E-01
  6.401216923E-01  8.137573261E-01
   s   1
  1.612777588E-01  1.000000000E+00
 
  11
   s   6
  3.047524880E+03  1.834737132E-03
  4.573695180E+02  1.403732281E-02
  1.039486850E+02  6.884262227E-02
  2.921015530E+01  2.321844432E-01
  9.286662960E+00  4.679413484E-01
  3.163926960E+00  3.623119853E-01
   s   3
  7.868272350E+00 -1.193324198E-01
  1.881288540E+00 -1.608541517E-01
  5.442492580E-01  1.143456438E+00
   s   1
  1.687144782E-01  1.000000000E+00
   p   3
  7.868272350E+00  6.899906659E-02
  1.881288540E+00  3.164239610E-01
  5.442492580E-01  7.443082909E-01
   p   1
  1.687144782E-01  1.000000000E+00
   d   1
  8.000000000E-01  1.000000000E+00
 
  12
   s   3
  1.873113696E+01  3.349460434E-02
  2.825394365E+00  2.347269535E-01
  6.401216923E-01  8.137573261E-01
   s   1
  1.612777588E-01  1.000000000E+00
 
  13
   s   3
  1.873113696E+01  3.349460434E-02
  2.825394365E+00  2.347269535E-01
  6.401216923E-01  8.137573261E-01
   s   1
  1.612777588E-01  1.000000000E+00
 
  14
   s   3
  1.873113696E+01  3.349460434E-02
  2.825394365E+00  2.347269535E-01
  6.401216923E-01  8.137573261E-01
   s   1
  1.612777588E-01  1.000000000E+00
 
[MO]
Sym=     1a  
Ene=   -11.3540
Spin= Alpha
Occup=    2.00000
   1         0.25965544
   2         0.00561383
   3         0.00069221
   4         0.00108714
   5         0.00048455
   6         0.00005966
   7         0.00067892
   8         0.00030260
   9         0.00003726
  10        -0.00000000
  11        -0.00000000
  12        -0.00000000
  13        -0.00000000
  14         0.00000000
  15        -0.00000000
  16         0.39175854
  17         0.00853752
  18         0.00111962
  19         0.00048308
  20        -0.00086417
  21        -0.00011602
  22         0.00030168
  23        -0.00053967
  24        -0.00007246
  25         0.00000000
  26        -0.00000000
  27        -0.00000000
  28        -0.00000000
  29        -0.00000000
  30         0.00000000
  31         0.00060830
  32         0.00067920
  33         0.00064073
  34         0.00071541
  35         0.52115095
  36         0.01125429
  37         0.00137468
  38         0.00055710
  39         0.00105325
  40         0.00013679
  41         0.00034791
  42         0.00065776
  43         0.00008543
  44         0.00000000
  45         0.00000000
  46         0.00000000
  47         0.00000000
  48        -0.00000000
  49        -0.00000000
  50         0.00096952
  51         0.00108251
  52         0.52117403
  53         0.01125480
  54         0.00137475
  55        -0.00055682
  56        -0.00105332
  57        -0.00013682
  58        -0.00034774
  59        -0.00065780
  60        -0.00008544
  61        -0.00000000
  62        -0.00000000
  63        -0.00000000
  64        -0.00000000
  65         0.00000000
  66        -0.00000000
  67         0.00127352
  68         0.00142195
  69         0.39184716
  70         0.00853935
  71         0.00111976
  72        -0.00048293
  73         0.00086430
  74         0.00011600
  75        -0.00030159
  76         0.00053976
  77         0.00007244
  78        -0.00000000
  79         0.00000000
  80         0.00000000
  81        -0.00000000
  82         0.00000000
  83        -0.00000000
  84         0.00127356
  85         0.00142199
  86         0.25973221
  87         0.00561544
  88         0.00069236
  89        -0.00108737
  90        -0.00048468
  91        -0.00005959
  92        -0.00067906
  93        -0.00030268
  94        -0.00003721
  95         0.00000000
  96         0.00000000
  97         0.00000000
  98         0.00000000
  99         0.00000000
 100         0.00000000
 101         0.00096972
 102         0.00108274
 103         0.00064090
 104         0.00071559
 105         0.00060847
 106         0.00067939
Sym=     2a  
Ene=   -11.3510
Spin= Alpha
Occup=    2.00000
   1        -0.45787234
   2        -0.00945373
   3        -0.00072451
   4        -0.00124612
   5        -0.00064485
   6        -0.00008020
   7        -0.00077820
   8        -0.00040271
   9        -0.00005008
  10         0.00000000
  11         0.00000000
  12         0.00000000
  13         0.00000000
  14         0.00000000
  15         0.00000000
  16        -0.51169336
  17        -0.01051428
  18        -0.00075322
  19         0.00085800
  20         0.00073267
  21         0.00009333
  22         0.00053582
  23         0.00045755
  24         0.00005829
  25        -0.00000000
  26         0.00000000
  27         0.00000000
  28        -0.00000000
  29        -0.00000000
  30         0.00000000
  31        -0.00102286
  32        -0.00114208
  33        -0.00102817
  34        -0.00114801
  35        -0.14750999
  36        -0.00316156
  37        -0.00036246
  38         0.00155864
  39        -0.00034940
  40        -0.00005234
  41         0.00097337
  42        -0.00021820
  43        -0.00003269
  44        -0.00000000
  45         0.00000000
  46         0.00000000
  47         0.00000000
  48        -0.00000000
  49         0.00000000
  50        -0.00113419
  51        -0.00126638
  52         0.14737637
  53         0.00315879
  54         0.00036223
  55         0.00155891
  56        -0.00034919
  57        -0.00005233
  58         0.00097354
  59        -0.00021807
  60        -0.00003268
  61        -0.00000000
  62         0.00000000
  63         0.00000000
  64         0.00000000
  65        -0.00000000
  66         0.00000000
  67        -0.00034440
  68        -0.00038454
  69         0.51165838
  70         0.01051344
  71         0.00075304
  72         0.00085829
  73         0.00073255
  74         0.00009322
  75         0.00053600
  76         0.00045748
  77         0.00005822
  78        -0.00000000
  79         0.00000000
  80         0.00000000
  81        -0.00000000
  82        -0.00000000
  83         0.00000000
  84         0.00034409
  85         0.00038419
  86         0.45787044
  87         0.00945363
  88         0.00072444
  89        -0.00124601
  90        -0.00064483
  91        -0.00008008
  92        -0.00077814
  93        -0.00040270
  94        -0.00005001
  95         0.00000000
  96         0.00000000
  97        -0.00000000
  98         0.00000000
  99         0.00000000
 100        -0.00000000
 101         0.00113409
 102         0.00126627
 103         0.00102814
 104         0.00114797
 105         0.00102284
 106         0.00114205
Sym=     3a  
Ene=   -11.3470
Spin= Alpha
Occup=    2.00000
   1         0.45575145
   2         0.00891779
   3         0.00017321
   4         0.00054321
   5         0.00038315
   6         0.00004844
   7         0.00033923
   8         0.00023928
   9         0.00003025
  10         0.00000000
  11         0.00000000
  12        -0.00000000
  13         0.00000000
  14         0.00000000
  15        -0.00000000
  16         0.29334242
  17         0.00559306
  18        -0.00005200
  19        -0.00199814
  20        -0.00012116
  21        -0.00000807
  22        -0.00124784
  23        -0.00007566
  24        -0.00000504
  25        -0.00000000
  26        -0.00000000
  27        -0.00000000
  28         0.00000000
  29        -0.00000000
  30         0.00000000
  31         0.00095660
  32         0.00106809
  33         0.00092177
  34         0.00102920
  35        -0.44761750
  36        -0.00859951
  37         0.00000704
  38        -0.00160529
  39        -0.00027413
  40        -0.00002978
  41        -0.00100250
  42        -0.00017119
  43        -0.00001860
  44         0.00000000
  45         0.00000000
  46         0.00000000
  47         0.00000000
  48         0.00000000
  49        -0.00000000
  50         0.00056708
  51         0.00063317
  52        -0.44763238
  53        -0.00859982
  54         0.00000701
  55         0.00160515
  56         0.00027416
  57         0.00002977
  58         0.00100241
  59         0.00017122
  60         0.00001859
  61        -0.00000000
  62        -0.00000000
  63        -0.00000000
  64         0.00000000
  65         0.00000000
  66         0.00000000
  67        -0.00086507
  68        -0.00096590
  69         0.29329331
  70         0.00559206
  71        -0.00005206
  72         0.00199808
  73         0.00012111
  74         0.00000795
  75         0.00124780
  76         0.00007563
  77         0.00000496
  78         0.00000000
  79         0.00000000
  80        -0.00000000
  81        -0.00000000
  82         0.00000000
  83        -0.00000000
  84        -0.00086510
  85        -0.00096592
  86         0.45570492
  87         0.00891685
  88         0.00017316
  89        -0.00054310
  90        -0.00038311
  91        -0.00004837
  92        -0.00033917
  93        -0.00023925
  94        -0.00003021
  95        -0.00000000
  96        -0.00000000
  97        -0.00000000
  98        -0.00000000
  99        -0.00000000
 100         0.00000000
 101         0.00056697
 102         0.00063305
 103         0.00092165
 104         0.00102907
 105         0.00095649
 106         0.00106797
Sym=     4a  
Ene=   -11.3340
Spin= Alpha
Occup=    2.00000
   1        -0.45862401
   2        -0.00791049
   3         0.00100976
   4         0.00078034
   5         0.00033261
   6         0.00004082
   7         0.00048732
   8         0.00020771
   9         0.00002549
  10         0.00000000
  11        -0.00000000
  12        -0.00000000
  13        -0.00000000
  14         0.00000000
  15        -0.00000000
  16         0.27898682
  17         0.00488197
  18        -0.00053641
  19         0.00171558
  20         0.00010907
  21         0.00000760
  22         0.00107138
  23         0.00006812
  24         0.00000475
  25         0.00000000
  26        -0.00000000
  27         0.00000000
  28         0.00000000
  29         0.00000000
  30        -0.00000000
  31        -0.00080111
  32        -0.00089448
  33        -0.00076941
  34        -0.00085909
  35         0.45557414
  36         0.00788000
  37        -0.00097843
  38        -0.00147088
  39        -0.00027368
  40        -0.00003025
  41        -0.00091856
  42        -0.00017092
  43        -0.00001889
  44         0.00000000
  45        -0.00000000
  46        -0.00000000
  47        -0.00000000
  48         0.00000000
  49        -0.00000000
  50         0.00046978
  51         0.00052454
  52        -0.45557987
  53        -0.00788009
  54         0.00097845
  55        -0.00147084
  56        -0.00027369
  57        -0.00003025
  58        -0.00091854
  59        -0.00017092
  60        -0.00001889
  61         0.00000000
  62         0.00000000
  63         0.00000000
  64        -0.00000000
  65         0.00000000
  66        -0.00000000
  67         0.00075125
  68         0.00083881
  69        -0.27896903
  70        -0.00488166
  71         0.00053637
  72         0.00171559
  73         0.00010908
  74         0.00000749
  75         0.00107138
  76         0.00006812
  77         0.00000468
  78         0.00000000
  79         0.00000000
  80         0.00000000
  81         0.00000000
  82        -0.00000000
  83         0.00000000
  84        -0.00075125
  85        -0.00083881
  86         0.45860883
  87         0.00791023
  88        -0.00100973
  89         0.00078031
  90         0.00033260
  91         0.00004075
  92         0.00048731
  93         0.00020771
  94         0.00002545
  95        -0.00000000
  96         0.00000000
  97        -0.00000000
  98        -0.00000000
  99        -0.00000000
 100        -0.00000000
 101        -0.00046976
 102        -0.00052451
 103         0.00076938
 104         0.00085905
 105         0.00080107
 106         0.00089444
Sym=     5a  
Ene=   -11.3300
Spin= Alpha
Occup=    2.00000
   1         0.46868671
   2         0.00777467
   3        -0.00137638
   4        -0.00111257
   5        -0.00063108
   6        -0.00007891
   7        -0.00069480
   8        -0.00039411
   9        -0.00004928
  10        -0.00000000
  11         0.00000000
  12         0.00000000
  13         0.00000000
  14        -0.00000000
  15         0.00000000
  16        -0.50522683
  17        -0.00827765
  18         0.00159853
  19        -0.00077424
  20        -0.00072895
  21        -0.00009318
  22        -0.00048351
  23        -0.00045523
  24        -0.00005819
  25         0.00000000
  26         0.00000000
  27        -0.00000000
  28        -0.00000000
  29        -0.00000000
  30        -0.00000000
  31         0.00075961
  32         0.00084815
  33         0.00077224
  34         0.00086225
  35         0.14640712
  36         0.00228143
  37        -0.00059383
  38         0.00092152
  39        -0.00031516
  40        -0.00004528
  41         0.00057549
  42        -0.00019682
  43        -0.00002828
  44        -0.00000000
  45        -0.00000000
  46         0.00000000
  47        -0.00000000
  48        -0.00000000
  49         0.00000000
  50        -0.00079439
  51        -0.00088698
  52         0.14634844
  53         0.00228048
  54        -0.00059364
  55        -0.00092161
  56         0.00031506
  57         0.00004528
  58        -0.00057554
  59         0.00019676
  60         0.00002827
  61         0.00000000
  62         0.00000000
  63         0.00000000
  64         0.00000000
  65         0.00000000
  66        -0.00000000
  67         0.00020570
  68         0.00022967
  69        -0.50520000
  70        -0.00827721
  71         0.00159844
  72         0.00077433
  73         0.00072891
  74         0.00009307
  75         0.00048357
  76         0.00045520
  77         0.00005813
  78        -0.00000000
  79        -0.00000000
  80        -0.00000000
  81         0.00000000
  82         0.00000000
  83         0.00000000
  84         0.00020560
  85         0.00022957
  86         0.46868166
  87         0.00777459
  88        -0.00137635
  89         0.00111255
  90         0.00063107
  91         0.00007880
  92         0.00069479
  93         0.00039410
  94         0.00004921
  95        -0.00000000
  96        -0.00000000
  97        -0.00000000
  98        -0.00000000
  99         0.00000000
 100        -0.00000000
 101        -0.00079435
 102        -0.00088693
 103         0.00077222
 104         0.00086223
 105         0.00075960
 106         0.00084813
Sym=     6a  
Ene=   -11.3270
Spin= Alpha
Occup=    2.00000
   1        -0.27350725
   2        -0.00442203
   3         0.00093119
   4         0.00074525
   5         0.00050463
   6         0.00006367
   7         0.00046541
   8         0.00031514
   9         0.00003976
  10        -0.00000000
  11        -0.00000000
  12        -0.00000000
  13        -0.00000000
  14        -0.00000000
  15        -0.00000000
  16         0.39376940
  17         0.00616822
  18        -0.00156131
  19        -0.00012043
  20         0.00086396
  21         0.00011455
  22        -0.00007521
  23         0.00053954
  24         0.00007154
  25         0.00000000
  26         0.00000000
  27        -0.00000000
  28        -0.00000000
  29         0.00000000
  30         0.00000000
  31        -0.00041758
  32        -0.00046625
  33        -0.00045658
  34        -0.00050980
  35        -0.51654126
  36        -0.00819508
  37         0.00193265
  38         0.00044658
  39         0.00105024
  40         0.00013684
  41         0.00027889
  42         0.00065588
  43         0.00008546
  44        -0.00000000
  45         0.00000000
  46         0.00000000
  47        -0.00000000
  48         0.00000000
  49        -0.00000000
  50         0.00060549
  51         0.00067606
  52         0.51655481
  53         0.00819529
  54        -0.00193270
  55         0.00044650
  56         0.00105027
  57         0.00013685
  58         0.00027884
  59         0.00065589
  60         0.00008546
  61         0.00000000
  62        -0.00000000
  63        -0.00000000
  64         0.00000000
  65         0.00000000
  66        -0.00000000
  67        -0.00081272
  68        -0.00090744
  69        -0.39381021
  70        -0.00616886
  71         0.00156146
  72        -0.00012036
  73         0.00086404
  74         0.00011451
  75        -0.00007516
  76         0.00053959
  77         0.00007151
  78        -0.00000000
  79        -0.00000000
  80         0.00000000
  81         0.00000000
  82         0.00000000
  83         0.00000000
  84         0.00081273
  85         0.00090745
  86         0.27354917
  87         0.00442272
  88        -0.00093132
  89         0.00074535
  90         0.00050470
  91         0.00006360
  92         0.00046547
  93         0.00031519
  94         0.00003972
  95         0.00000000
  96        -0.00000000
  97        -0.00000000
  98         0.00000000
  99         0.00000000
 100        -0.00000000
 101        -0.00060555
 102        -0.00067613
 103         0.00045665
 104         0.00050987
 105         0.00041764
 106         0.00046632
Sym=     7a  
Ene=    -1.6287
Spin= Alpha
Occup=    2.00000
   1        -0.06090984
   2         0.07677282
   3         0.08677951
   4         0.03334604
   5         0.00758002
   6         0.00086831
   7         0.02082458
   8         0.00473372
   9         0.00054226
  10         0.00000000
  11         0.00000000
  12         0.00000000
  13         0.00000000
  14        -0.00000000
  15         0.00000000
  16        -0.09478238
  17         0.11829293
  18         0.13373135
  19         0.02236484
  20        -0.01860776
  21        -0.00254606
  22         0.01396683
  23        -0.01162053
  24        -0.00159001
  25        -0.00000000
  26         0.00000000
  27        -0.00000000
  28        -0.00000000
  29         0.00000000
  30        -0.00000000
  31         0.02668547
  32         0.02979571
  33         0.03338830
  34         0.03727976
  35        -0.11884471
  36         0.14768005
  37         0.16696482
  38         0.01157496
  39         0.02078963
  40         0.00269721
  41         0.00722856
  42         0.01298311
  43         0.00168441
  44        -0.00000000
  45        -0.00000000
  46        -0.00000000
  47        -0.00000000
  48         0.00000000
  49        -0.00000000
  50         0.04890802
  51         0.05460833
  52        -0.11884510
  53         0.14768060
  54         0.16696544
  55        -0.01157415
  56        -0.02078973
  57        -0.00269862
  58        -0.00722805
  59        -0.01298317
  60        -0.00168528
  61         0.00000000
  62         0.00000000
  63        -0.00000000
  64         0.00000000
  65        -0.00000000
  66         0.00000000
  67         0.06210123
  68         0.06933924
  69        -0.09478425
  70         0.11829477
  71         0.13373343
  72        -0.02236466
  73         0.01860788
  74         0.00254510
  75        -0.01396672
  76         0.01162061
  77         0.00158941
  78         0.00000000
  79         0.00000000
  80         0.00000000
  81         0.00000000
  82        -0.00000000
  83         0.00000000
  84         0.06210106
  85         0.06933905
  86        -0.06091117
  87         0.07677439
  88         0.08678128
  89        -0.03334667
  90        -0.00758063
  91        -0.00086639
  92        -0.02082498
  93        -0.00473410
  94        -0.00054106
  95         0.00000000
  96        -0.00000000
  97         0.00000000
  98        -0.00000000
  99         0.00000000
 100        -0.00000000
 101         0.04890888
 102         0.05460930
 103         0.03338853
 104         0.03728002
 105         0.02668584
 106         0.02979613
Sym=     8a  
Ene=    -1.4946
Spin= Alpha
Occup=    2.00000
   1         0.10500704
   2        -0.13282639
   3        -0.15013116
   4        -0.03459892
   5        -0.01392052
   6        -0.00170046
   7        -0.02160700
   8        -0.00869336
   9        -0.00106194
  10         0.00000000
  11        -0.00000000
  12         0.00000000
  13        -0.00000000
  14        -0.00000000
  15        -0.00000000
  16         0.11143005
  17        -0.13908111
  18        -0.15723240
  19         0.02527127
  20         0.02249670
  21         0.00286994
  22         0.01578189
  23         0.01404918
  24         0.00179228
  25         0.00000000
  26        -0.00000000
  27         0.00000000
  28         0.00000000
  29         0.00000000
  30        -0.00000000
  31        -0.05405269
  32        -0.06035262
  33        -0.05707922
  34        -0.06373190
  35         0.04367907
  36        -0.05500834
  37        -0.06217899
  38         0.07020912
  39        -0.01039287
  40        -0.00165177
  41         0.04384556
  42        -0.00649034
  43        -0.00103153
  44         0.00000000
  45        -0.00000000
  46         0.00000000
  47        -0.00000000
  48         0.00000000
  49        -0.00000000
  50        -0.05611768
  51        -0.06265829
  52        -0.04367719
  53         0.05500600
  54         0.06217635
  55         0.07020978
  56        -0.01039252
  57        -0.00165299
  58         0.04384597
  59        -0.00649012
  60        -0.00103229
  61         0.00000000
  62         0.00000000
  63         0.00000000
  64        -0.00000000
  65         0.00000000
  66        -0.00000000
  67        -0.02209795
  68        -0.02467350
  69        -0.11142997
  70         0.13908038
  71         0.15723159
  72         0.02527192
  73         0.02249664
  74         0.00286718
  75         0.01578230
  76         0.01404914
  77         0.00179055
  78         0.00000000
  79        -0.00000000
  80        -0.00000000
  81         0.00000000
  82         0.00000000
  83        -0.00000000
  84         0.02209639
  85         0.02467176
  86        -0.10500695
  87         0.13282605
  88         0.15013078
  89        -0.03459867
  90        -0.01392107
  91        -0.00169805
  92        -0.02160685
  93        -0.00869370
  94        -0.00106043
  95        -0.00000000
  96        -0.00000000
  97        -0.00000000
  98        -0.00000000
  99         0.00000000
 100         0.00000000
 101         0.05611747
 102         0.06265806
 103         0.05707847
 104         0.06373107
 105         0.05405229
 106         0.06035218
Sym=     9a  
Ene=    -1.2915
Spin= Alpha
Occup=    2.00000
   1        -0.11328245
   2         0.14834655
   3         0.16758781
   4        -0.01086504
   5         0.01366620
   6         0.00184705
   7        -0.00678521
   8         0.00853454
   9         0.00115348
  10        -0.00000000
  11         0.00000000
  12        -0.00000000
  13        -0.00000000
  14        -0.00000000
  15         0.00000000
  16        -0.03820186
  17         0.04853157
  18         0.05485078
  19        -0.10520060
  20        -0.00859649
  21        -0.00071728
  22        -0.06569772
  23        -0.00536850
  24        -0.00044794
  25         0.00000000
  26         0.00000000
  27         0.00000000
  28        -0.00000000
  29         0.00000000
  30        -0.00000000
  31         0.07879905
  32         0.08798321
  33         0.06536213
  34         0.07298020
  35         0.09132007
  36        -0.11594667
  37        -0.13104500
  38        -0.06698040
  39        -0.01790896
  40        -0.00209720
  41        -0.04182922
  42        -0.01118414
  43        -0.00130970
  44        -0.00000000
  45         0.00000000
  46         0.00000000
  47         0.00000000
  48         0.00000000
  49        -0.00000000
  50         0.01861921
  51         0.02078931
  52         0.09131986
  53        -0.11594646
  54        -0.13104476
  55         0.06698062
  56         0.01790921
  57         0.00209537
  58         0.04182936
  59         0.01118429
  60         0.00130855
  61         0.00000000
  62         0.00000000
  63         0.00000000
  64         0.00000000
  65        -0.00000000
  66         0.00000000
  67        -0.04600494
  68        -0.05136690
  69        -0.03820207
  70         0.04853156
  71         0.05485078
  72         0.10520025
  73         0.00859727
  74         0.00071166
  75         0.06569750
  76         0.00536899
  77         0.00044443
  78        -0.00000000
  79        -0.00000000
  80        -0.00000000
  81        -0.00000000
  82        -0.00000000
  83         0.00000000
  84        -0.04600488
  85        -0.05136683
  86        -0.11328170
  87         0.14834532
  88         0.16758643
  89         0.01086526
  90        -0.01366615
  91        -0.00184740
  92         0.00678535
  93        -0.00853450
  94        -0.00115370
  95        -0.00000000
  96         0.00000000
  97         0.00000000
  98         0.00000000
  99         0.00000000
 100        -0.00000000
 101         0.01861917
 102         0.02078926
 103         0.06536130
 104         0.07297928
 105         0.07879822
 106         0.08798229
Sym=    10a  
Ene=    -1.0723
Spin= Alpha
Occup=    2.00000
   1         0.04923839
   2        -0.06747715
   3        -0.07618025
   4         0.02601042
   5         0.07436196
   6         0.00971569