   This run of MOLCAS is using the pymolcas driver

                             OPE
                             OPE          NMOL  CASOP  ENMOLC A   SO
                 OPE        NMOLC        AS  OP EN  MO LC     AS  OP
                OPENM       OL CA        SO  PE NM  OL CA     SOP EN
                OP EN      MO   LC       AS  OP ENMOL  CASO   PENMOL
                OP  EN     MO   LC       AS  OP EN     MO     LC ASO
               OP   E  NMOL  C  AS       OP  EN MO     LC     AS  OP
               OP  E   NMO   LC AS        OPEN  MO     LCASOP EN   M
               O  PEN   MO  LCA  SO
            OPE   NMO   L   CAS    OP
        OPENMOL  CASOP     ENMOL   CASOPE
     OPENMOLCA   SOPENMOLCASOPEN   MOLCASOPE
    OPENMOLCAS   OP           EN   MOL    CAS
    OPENMOLCAS       OP  ENM        O     LCA
    OPENMOLCAS    OPEN  MOLCASO     P  E  NMO
    OPENMOLCAS     OP               E  N  MOL
    OPENMOLCA   SO           PENM   O  L  CAS    OPEN    MO    LCAS
    OPENMOLCA   SOP           ENM   O  L  CAS   OP  EN  MOLC  AS   O
    OPENMOLCA   SOPE           NM      O  LCA   S      OP  EN MO
    OPENMOLC                AS         O  PEN   M      OL  CA  SOPE
    OPENMO        LCASOPE  NMOL        C  ASO   P      ENMOLC     AS
    OPE     NMO      LCA  SO     P     E   NM   OL  CA SO  PE N   MO
          OPENMOLCA            SOPE   NMO        LCAS  O    P  ENMO
     OPENMOLCASOPENMOLCASOPENMOLCASOPENMOLCA
        OPENMOLCASOPENMOLCASOPENMOLCASOPE
            OPENMOLCASOPENMOLCASOPENM
               OPENMOLCASOPENMOLCA        version: 24.02
                   OPENMOLCASO
                       OPE                tag: 428-g03afa2e9a

 OpenMolcas is free software; you can redistribute it and/or modify it
 under the terms of the GNU Lesser General Public License version 2.1.
 OpenMolcas is distributed in the hope that it will be useful, but it
 is provided "as is" and without any express or implied warranties.
 For more details see the full text of the license in the file
 LICENSE or in <http://www.gnu.org/licenses/>.

                 Copyright (C) The OpenMolcas Authors
           For the author list and the recommended citation,
                   consult the file CONTRIBUTORS.md

           *************************************************
           * pymolcas version py2.28                       *
           *   build c4a6d18ded8cb6cad61d2372a9abd97c      *
           *   (after the EMIL interpreter by V. Veryazov) *
           *************************************************

configuration info
------------------
Host name: DESKTOP-ET1S6F4 (Linux)
C Compiler ID: GNU
C flags: -std=gnu99 -fopenmp
Fortran Compiler ID: GNU
Fortran flags: -fno-aggressive-loop-optimizations -cpp -fdefault-integer-8 -fopenmp
Definitions: _WARNING_WORKAROUND_;_MOLCAS_;_I8_;_LINUX_
Parallel: OFF (GA=OFF)


   ----------------------------------------------------------------------
  |
  |           Project: c6h8
  |    Submitted from: /home/kenya/molcas_test/0604
  |      Scratch area: /tmp/c6h8
  |   Save outputs to: /home/kenya/molcas_test/0604
  |            Molcas: /home/kenya/OpenMolcas/builds/gnu_dev_omp
  |
  | Scratch area is NOT empty
  |
  |    MOLCAS_DRIVER = /home/kenya/OpenMolcas/builds/gnu_dev_omp/pymolcas
  |    MOLCAS_NPROCS = 1
  |    MOLCAS_SOURCE = /home/kenya/OpenMolcas
  | MOLCAS_STRUCTURE = 0
  |
   ----------------------------------------------------------------------

++ ---------   Input file   ---------

&GATEWAY
Coord = 14
Energy:       3.1709974
C         -7.00585        2.33294       -0.01675
C         -5.83404        2.96760        0.06240
H         -7.93210        2.89306        0.06087
H         -7.05450        1.25729       -0.15860
C         -4.55760        2.23101       -0.03992
H         -5.82819        4.04498        0.20464
C         -3.38412        2.87192        0.03999
H         -4.57619        1.15280       -0.18218
C         -2.10768        2.13534       -0.06235
H         -3.36554        3.95014        0.18224
C         -0.93588        2.77001        0.01669
H         -2.11353        1.05795       -0.20451
H         -0.88722        3.84568        0.15844
H         -0.00962        2.20990       -0.06096
  Basis = 6-31G*
  Group = C1
  RICD

&SEWARD

&SCF

&RASSCF
  Inactive = 19
  RAS2   = 6
  nActEl = 6 0 0
  CIRoot = 6 6 1
  LUMORB

-- ----------------------------------

*** symbolic link created: INPORB -> c6h8.RasOrb
--- Start Module: gateway at Tue Jun 11 13:34:32 2024 ---

()()()()()()()()()()()()()()()()()()()()()()()()()()()()()()()()()()()()()()()()()()()()()()()()()()

                                              &GATEWAY

                                   only a single process is used
                       available to each process: 2.0 GB of memory, 1 thread
                                            pid: 176031
()()()()()()()()()()()()()()()()()()()()()()()()()()()()()()()()()()()()()()()()()()()()()()()()()()


++    Symmetry information:
      ---------------------

                    Character Table for C1 

                             E  
                    a        1  x, y, xy, Rz, z, xz, Ry, yz, Rx, I
--


++    Basis set information:
      ----------------------


      Basis set label: C.6-31G**....

      Electronic valence basis set:
      ------------------
      Associated Effective Charge   6.000000 au
      Associated Actual Charge      6.000000 au
      Nuclear Model: Point charge

      Shell  nPrim  nBasis  Cartesian Spherical Contaminant
         s      10       3        X                  
         p       4       2        X                  
         d       1       1        X                  


      Basis set label: H.6-31G....

      Electronic valence basis set:
      ------------------
      Associated Effective Charge   1.000000 au
      Associated Actual Charge      1.000000 au
      Nuclear Model: Point charge

      Shell  nPrim  nBasis  Cartesian Spherical Contaminant
         s       4       2        X                  


      Basis set label: C.6-31G**....

      Electronic valence basis set:
      ------------------
      Associated Effective Charge   6.000000 au
      Associated Actual Charge      6.000000 au
      Nuclear Model: Point charge

      Shell  nPrim  nBasis  Cartesian Spherical Contaminant
         s      10       3        X                  
         p       4       2        X                  
         d       1       1        X                  


      Basis set label: H.6-31G....

      Electronic valence basis set:
      ------------------
      Associated Effective Charge   1.000000 au
      Associated Actual Charge      1.000000 au
      Nuclear Model: Point charge

      Shell  nPrim  nBasis  Cartesian Spherical Contaminant
         s       4       2        X                  


      Basis set label: C.6-31G**....

      Electronic valence basis set:
      ------------------
      Associated Effective Charge   6.000000 au
      Associated Actual Charge      6.000000 au
      Nuclear Model: Point charge

      Shell  nPrim  nBasis  Cartesian Spherical Contaminant
         s      10       3        X                  
         p       4       2        X                  
         d       1       1        X                  


      Basis set label: H.6-31G....

      Electronic valence basis set:
      ------------------
      Associated Effective Charge   1.000000 au
      Associated Actual Charge      1.000000 au
      Nuclear Model: Point charge

      Shell  nPrim  nBasis  Cartesian Spherical Contaminant
         s       4       2        X                  


      Basis set label: C.6-31G**....

      Electronic valence basis set:
      ------------------
      Associated Effective Charge   6.000000 au
      Associated Actual Charge      6.000000 au
      Nuclear Model: Point charge

      Shell  nPrim  nBasis  Cartesian Spherical Contaminant
         s      10       3        X                  
         p       4       2        X                  
         d       1       1        X                  


      Basis set label: H.6-31G....

      Electronic valence basis set:
      ------------------
      Associated Effective Charge   1.000000 au
      Associated Actual Charge      1.000000 au
      Nuclear Model: Point charge

      Shell  nPrim  nBasis  Cartesian Spherical Contaminant
         s       4       2        X                  


      Basis set label: C.6-31G**....

      Electronic valence basis set:
      ------------------
      Associated Effective Charge   6.000000 au
      Associated Actual Charge      6.000000 au
      Nuclear Model: Point charge

      Shell  nPrim  nBasis  Cartesian Spherical Contaminant
         s      10       3        X                  
         p       4       2        X                  
         d       1       1        X                  


      Basis set label: H.6-31G....

      Electronic valence basis set:
      ------------------
      Associated Effective Charge   1.000000 au
      Associated Actual Charge      1.000000 au
      Nuclear Model: Point charge

      Shell  nPrim  nBasis  Cartesian Spherical Contaminant
         s       4       2        X                  
--


++    Molecular structure info:
      -------------------------

                    ************************************************ 
                    **** Cartesian Coordinates / Bohr, Angstrom **** 
                    ************************************************ 

     Center  Label                x              y              z                     x              y              z
        1      C1             -13.239138       4.408618      -0.031653             -7.005850       2.332940      -0.016750
        2      C2             -11.024738       5.607951       0.117919             -5.834040       2.967600       0.062400
        3      H3             -14.989497       5.467091       0.115028             -7.932100       2.893060       0.060870
        4      H4             -13.331073       2.375934      -0.299711             -7.054500       1.257290      -0.158600
        5      C5              -8.612616       4.215998      -0.075438             -4.557600       2.231010      -0.039920
        6      H6             -11.013683       7.643904       0.386714             -5.828190       4.044980       0.204640
        7      C7              -6.395060       5.427142       0.075570             -3.384120       2.871920       0.039990
        8      H8              -8.647746       2.178476      -0.344270             -4.576190       1.152800      -0.182180
        9      C9              -3.982938       4.035208      -0.117824             -2.107680       2.135340      -0.062350
       10      H10             -6.359949       7.464683       0.344384             -3.365540       3.950140       0.182240
       11      C11             -1.768557       5.234560       0.031540             -0.935880       2.770010       0.016690
       12      H12             -3.993993       1.999236      -0.386468             -2.113530       1.057950      -0.204510
       13      H13             -1.676603       7.267282       0.299408             -0.887220       3.845680       0.158440
       14      H14             -0.018179       4.176106      -0.115198             -0.009620       2.209900      -0.060960

                    *************************************** 
                    *    InterNuclear Distances / Bohr    * 
                    *************************************** 

               1 C1            2 C2            3 H3            4 H4            5 C5            6 H6    
    1 C1       0.000000
    2 C2       2.522764        0.000000
    3 H3       2.050765        3.967261        0.000000
    4 H4       2.052343        3.992434        3.532369        0.000000
    5 C5       4.630737        2.791640        6.501240        5.069514        0.000000
    6 H6       3.949020        2.053650        4.540862        5.795946        4.210612        0.000000
    7 C7       6.920281        4.633401        8.594620        7.586764        2.531250        5.132497
    8 H8       5.113916        4.198215        7.158474        4.687700        2.055480        6.000242
    9 C9       9.264130        7.219144       11.101750        9.495994        4.633400        7.918878
   10 H10      7.536855        5.025833        8.860704        8.654871        3.975514        4.657376
   11 C11     11.500452        9.264112       13.223248       11.915253        6.920264        9.560515
   12 H12      9.560529        7.918877       11.540304        9.345079        5.132490        9.040804
   13 H13     11.915275        9.495996       13.435320       12.653494        7.586773        9.345081
   14 H14     13.223267       11.101750       15.028639       13.435319        8.594621       11.540305

               7 C7            8 H8            9 C9           10 H10          11 C11          12 H12   
    7 C7       0.000000
    8 H8       3.975511        0.000000
    9 C9       2.791633        5.025849        0.000000
   10 H10      2.055496        5.801055        4.198228        0.000000
   11 C11      4.630719        7.536851        2.522744        5.113922        0.000000
   12 H12      4.210599        4.657395        2.053649        6.000250        3.949002        0.000000
   13 H13      5.069522        8.654889        3.992439        4.687720        2.052356        5.795950
   14 H14      6.501238        8.860723        3.967262        7.158491        2.050775        4.540864

              13 H13          14 H14   
   13 H13      0.000000
   14 H14      3.532370        0.000000

                    ******************************************* 
                    *    InterNuclear Distances / Angstrom    * 
                    ******************************************* 

               1 C1            2 C2            3 H3            4 H4            5 C5            6 H6    
    1 C1       0.000000
    2 C2       1.334989        0.000000
    3 H3       1.085218        2.099384        0.000000
    4 H4       1.086053        2.112705        1.869249        0.000000
    5 C5       2.450480        1.477272        3.440308        2.682671        0.000000
    6 H6       2.089731        1.086745        2.402920        3.067082        2.228160        0.000000
    7 C7       3.662055        2.451890        4.548077        4.014743        1.339480        2.716000
    8 H8       2.706168        2.221600        3.788101        2.480624        1.087713        3.175191
    9 C9       4.902366        3.820207        5.874793        5.025064        2.451890        4.190490
   10 H10      3.988332        2.659556        4.688882        4.579961        2.103751        2.464577
   11 C11      6.085777        4.902357        6.997441        6.305280        3.662046        5.059207
   12 H12      5.059214        4.190489        6.106866        4.945203        2.715997        4.784188
   13 H13      6.305292        5.025065        7.109665        6.695941        4.014747        4.945204
   14 H14      6.997452        5.874793        7.952813        7.109665        4.548078        6.106867

               7 C7            8 H8            9 C9           10 H10          11 C11          12 H12   
    7 C7       0.000000
    8 H8       2.103750        0.000000
    9 C9       1.477269        2.659565        0.000000
   10 H10      1.087722        3.069786        2.221606        0.000000
   11 C11      2.450471        3.988330        1.334979        2.706171        0.000000
   12 H12      2.228153        2.464587        1.086744        3.175196        2.089722        0.000000
   13 H13      2.682676        4.579970        2.112708        2.480635        1.086060        3.067085
   14 H14      3.440307        4.688893        2.099385        3.788110        1.085224        2.402922

              13 H13          14 H14   
   13 H13      0.000000
   14 H14      1.869250        0.000000

                    ************************************** 
                    *    Valence Bond Angles / Degree    * 
                    ************************************** 
                          Atom centers                 Phi
                      2 C2       1 C1       3 H3       119.97
                      2 C2       1 C1       4 H4       121.19
                      3 H3       1 C1       4 H4       118.84
                      1 C1       2 C2       5 C5       121.15
                      1 C1       2 C2       6 H6       118.93
                      5 C5       2 C2       6 H6       119.92
                      2 C2       5 C5       7 C7       120.95
                      2 C2       5 C5       8 H8       119.25
                      7 C7       5 C5       8 H8       119.81
                      5 C5       7 C7       9 C9       120.95
                      5 C5       7 C7      10 H10      119.81
                      9 C9       7 C7      10 H10      119.25
                      7 C7       9 C9      11 C11      121.15
                      7 C7       9 C9      12 H12      119.92
                     11 C11      9 C9      12 H12      118.93
                      9 C9      11 C11     13 H13      121.19
                      9 C9      11 C11     14 H14      119.97
                     13 H13     11 C11     14 H14      118.83

           ***************************************************************
           *              Valence Dihedral Angles / Degree               *
           ***************************************************************
                    Atom centers                       Phi1     Phi2     Theta 
           3 H3       1 C1       2 C2       5 C5        119.97   121.15  -180.00
           3 H3       1 C1       2 C2       6 H6        119.97   118.93     0.00
           4 H4       1 C1       2 C2       5 C5        121.19   121.15    -0.00
           4 H4       1 C1       2 C2       6 H6        121.19   118.93   180.00
           1 C1       2 C2       5 C5       7 C7        121.15   120.95   180.00
           1 C1       2 C2       5 C5       8 H8        121.15   119.25    -0.00
           6 H6       2 C2       5 C5       7 C7        119.92   120.95    -0.00
           6 H6       2 C2       5 C5       8 H8        119.92   119.25   180.00
           2 C2       5 C5       7 C7       9 C9        120.95   120.95  -180.00
           2 C2       5 C5       7 C7      10 H10       120.95   119.81     0.00
           8 H8       5 C5       7 C7       9 C9        119.81   120.95    -0.00
           8 H8       5 C5       7 C7      10 H10       119.81   119.81   180.00
           5 C5       7 C7       9 C9      11 C11       120.95   121.15   180.00
           5 C5       7 C7       9 C9      12 H12       120.95   119.92    -0.00
          10 H10      7 C7       9 C9      11 C11       119.25   121.15    -0.00
          10 H10      7 C7       9 C9      12 H12       119.25   119.92   180.00
           7 C7       9 C9      11 C11     13 H13       121.15   121.19    -0.00
           7 C7       9 C9      11 C11     14 H14       121.15   119.97  -180.00
          12 H12      9 C9      11 C11     13 H13       118.93   121.19   180.00
          12 H12      9 C9      11 C11     14 H14       118.93   119.97     0.00
--


            Nuclear Potential Energy            194.23727043 au

--- Stop Module: gateway at Tue Jun 11 13:34:33 2024 /rc=_RC_ALL_IS_WELL_ ---
*** files: c6h8.RICDLib xmldump
    saved to directory /home/kenya/molcas_test/0604

*** symbolic link created: INPORB -> c6h8.RasOrb
--- Start Module: seward at Tue Jun 11 13:34:33 2024 ---

()()()()()()()()()()()()()()()()()()()()()()()()()()()()()()()()()()()()()()()()()()()()()()()()()()

                                              &SEWARD

                                   only a single process is used
                       available to each process: 2.0 GB of memory, 1 thread
                                            pid: 176036
()()()()()()()()()()()()()()()()()()()()()()()()()()()()()()()()()()()()()()()()()()()()()()()()()()

               SEWARD will generate:
                  Multipole Moment integrals up to order  2
                  Kinetic Energy integrals
                  Nuclear Attraction integrals (point charge)
                  One-Electron Hamiltonian integrals
                  Velocity integrals
                  Orbital angular momentum around (-7.5038  4.8216  0.0000 )
                  Velocity quadrupole around (-7.5038  4.8216  0.0000 )
                  RI decomposed two-electron repulsion integrals stored Cholesky style
                   - acCD auxiliary basis
                   - CD Threshold:   0.10E-03

                   Integrals are discarded if absolute value <: 1.00E-14
                   Integral cutoff threshold is set to       <: 1.00E-16

            Nuclear Potential Energy            194.23727043 au


      Basis set specifications :
      Symmetry species         a  
      Basis functions          106


      Input file to MOLDEN was generated!

--- Stop Module: seward at Tue Jun 11 13:34:35 2024 /rc=_RC_ALL_IS_WELL_ ---
*** files: c6h8.GssOrb c6h8.guessorb.molden xmldump
    saved to directory /home/kenya/molcas_test/0604
--- Module seward spent 2 seconds ---

*** symbolic link created: INPORB -> c6h8.ScfOrb
--- Start Module: scf at Tue Jun 11 13:34:35 2024 ---

()()()()()()()()()()()()()()()()()()()()()()()()()()()()()()()()()()()()()()()()()()()()()()()()()()

                                                &SCF

                                   only a single process is used
                       available to each process: 2.0 GB of memory, 1 thread
                                            pid: 176071
()()()()()()()()()()()()()()()()()()()()()()()()()()()()()()()()()()()()()()()()()()()()()()()()()()

++    Input section:
      --------------

      Header of the integral files:
      
       Integrals generated by Gateway/Seward, Tue Jun 11 13:34:33 2024


      Cartesian coordinates in Angstrom:
      -----------------------------------------------------
      No.  Label        X            Y            Z        
      -----------------------------------------------------
       1   C1        -7.00585000   2.33294000  -0.01675000
       2   C2        -5.83404000   2.96760000   0.06240000
       3   H3        -7.93210000   2.89306000   0.06087000
       4   H4        -7.05450000   1.25729000  -0.15860000
       5   C5        -4.55760000   2.23101000  -0.03992000
       6   H6        -5.82819000   4.04498000   0.20464000
       7   C7        -3.38412000   2.87192000   0.03999000
       8   H8        -4.57619000   1.15280000  -0.18218000
       9   C9        -2.10768000   2.13534000  -0.06235000
      10   H10       -3.36554000   3.95014000   0.18224000
      11   C11       -0.93588000   2.77001000   0.01669000
      12   H12       -2.11353000   1.05795000  -0.20451000
      13   H13       -0.88722000   3.84568000   0.15844000
      14   H14       -0.00962000   2.20990000  -0.06096000
      -----------------------------------------------------
      Nuclear repulsion energy =  194.23727043
--

++    Orbital specifications:
      -----------------------

      Symmetry species               1
                                     a
      Frozen orbitals                0
      Occupied orbitals             22
      Secondary orbitals            84
      Deleted orbitals               0
      Total number of orbitals     106
      Number of basis functions    106
--

      Molecular charge                           0.000

++    Optimization specifications:
      ----------------------------

      SCF Algorithm: LK-RI/DF
      LK screening threshold:                     4.50E-02
      Local-Exchange (LK) algorithm.
       - the density matrix is decomposed
      The actual AO density is used
      Number of density matrices in core                 5
      Maximum number of NDDO SCF iterations            400
      Maximum number of HF SCF iterations              400
      Threshold for SCF energy change             1.00E-09
      Threshold for density matrix                1.00E-04
      Threshold for Fock matrix                   1.50E-04
      Threshold for linear dependence             1.00E-09
      Threshold at which DIIS is turned on        1.50E-01
      Maximum depth in the DIIS procedure                5
      Maximum depth in the BFGS Hessian update          30
      Threshold at which QNR/C2DIIS is turned on  7.50E-02
      Threshold for Norm(delta) (QNR/C2DIIS)      1.00E-03
      All orbitals punched on: SCFORB
--

      Input vectors read from INPORB
      Orbital file label: * SCF orbitals


++ Convergence information
                                   SCF        iterations: Energy and convergence statistics

Iter     Tot. SCF        One-elec.       Two-elec.     Energy      Max Dij or  Max Fij      DNorm      TNorm      AccCon     Time
         Energy          Energy          Energy        Change      Delta Norm                                                in Sec.
 IFG                   25               140875
 IFG                   25               140875
 IFG                   25               140875
 IFG                   25               140875
 IFG                   25               140875
 IFG                   25               140875
 IFG                   25               140875
 IFG                   25               140875
 IFG                   25               140875
 IFG                   25               140875
 IFG                   25               140875
 IFG                   25               140875
 IFG                   25               140875
 IFG                   25               140875
 IFG                   25               140875
 IFG                   25               140875
 IFG                   25               140875
 IFG                   19               107065
   1  -231.803736306  -696.115097668   270.074090935   0.00E+00    1.14E-06    2.88E-07     6.96E+00   2.45E+02   None         0.
 IFG                   25               140875
 IFG                   25               140875
 IFG                   25               140875
 IFG                   25               140875
 IFG                   25               140875
 IFG                   25               140875
 IFG                   25               140875
 IFG                   25               140875
 IFG                   25               140875
 IFG                   25               140875
 IFG                   25               140875
 IFG                   25               140875
 IFG                   25               140875
 IFG                   25               140875
 IFG                   25               140875
 IFG                   25               140875
 IFG                   25               140875
 IFG                   19               107065
   2  -231.803736306  -696.115090981   270.074084247   1.02E-11*   1.09E-06    1.67E-08     6.96E+00   2.45E+02   EDIIS        0.
 IFG                   25               140875
 IFG                   25               140875
 IFG                   25               140875
 IFG                   25               140875
 IFG                   25               140875
 IFG                   25               140875
 IFG                   25               140875
 IFG                   25               140875
 IFG                   25               140875
 IFG                   25               140875
 IFG                   25               140875
 IFG                   25               140875
 IFG                   25               140875
 IFG                   25               140875
 IFG                   25               140875
 IFG                   25               140875
 IFG                   25               140875
 IFG                   19               107065
   3  -231.803736306  -696.115091015   270.074084281  -6.08E-12    6.44E-07    1.54E-07     6.96E+00   2.45E+02   c2DIIS       0.

       Convergence after   3 Macro Iterations
--

 *****************************************************************************************************************************
 *                                                                                                                           *
 *                                             SCF/KS-DFT Program, Final results                                             *
 *                                                                                                                           *
 *                                                                                                                           *
 *                                                                                                                           *
 *                                                       Final Results                                                       *
 *                                                                                                                           *
 *****************************************************************************************************************************

::    Total SCF energy                               -231.8037363063
      One-electron energy                            -696.1150910146
      Two-electron energy                             270.0740842812
      Nuclear repulsion energy                        194.2372704272
      Kinetic energy (interpolated)                   231.3857197748
      Virial theorem                                    1.0018065788
      Total spin, S(S+1)                                0.0000000000
      Total spin, S                                     0.0000000000
      Max non-diagonal density matrix element           0.0000006440
      Max non-diagonal Fock matrix element              0.0000001542


      All orbitals with orbital energies smaller than  E(LUMO)+0.5 are printed

++    Molecular orbitals:
      -------------------

      Title: SCF orbitals

      Molecular orbitals for symmetry species 1: a  

          Orbital            1         2         3         4         5         6         7         8         9        10    
          Energy          -11.2373  -11.2372  -11.2365  -11.2350  -11.2244  -11.2244   -1.1027   -1.0506   -0.9793   -0.8302
          Occ. No.          2.0000    2.0000    2.0000    2.0000    2.0000    2.0000    2.0000    2.0000    2.0000    2.0000

        1 C1     1s         0.0385   -0.0443   -0.0246    0.0101    0.5732   -0.8115   -0.0561    0.0998   -0.1058    0.0942
        2 C1     2s         0.0008   -0.0010   -0.0007    0.0003    0.0158   -0.0225    0.1052   -0.1880    0.1998   -0.1814
        3 C1     *s         0.0025   -0.0024   -0.0012    0.0006   -0.0069    0.0098    0.0852   -0.1506    0.1698   -0.1711
        4 C1     2px       -0.0001    0.0001    0.0000   -0.0000    0.0000   -0.0000    0.0477   -0.0685    0.0425    0.0624
        5 C1     *px        0.0013   -0.0011   -0.0004    0.0003   -0.0005    0.0008    0.0075   -0.0089    0.0059    0.0289
        6 C1     2py       -0.0000    0.0000    0.0001   -0.0000    0.0000   -0.0000    0.0189   -0.0328    0.0316    0.0068
        7 C1     *py        0.0002   -0.0001   -0.0003   -0.0000   -0.0002    0.0003    0.0039   -0.0018   -0.0039    0.0070
        8 C1     2pz       -0.0000    0.0000    0.0000   -0.0000    0.0000    0.0000    0.0023   -0.0041    0.0040    0.0007
        9 C1     *pz        0.0000   -0.0000   -0.0000   -0.0000   -0.0000    0.0000    0.0005   -0.0002   -0.0005    0.0008
       10 C1     *200      -0.0001    0.0001    0.0001   -0.0001   -0.0006    0.0008    0.0035   -0.0056    0.0051   -0.0028
       11 C1     *110      -0.0000    0.0000    0.0000   -0.0000    0.0001   -0.0001    0.0029   -0.0040    0.0025    0.0048
       12 C1     *101      -0.0000    0.0000    0.0000   -0.0000    0.0000   -0.0000    0.0003   -0.0004    0.0002    0.0007
       13 C1     *020      -0.0001    0.0002    0.0001   -0.0001   -0.0006    0.0009    0.0010   -0.0026    0.0039   -0.0066
       14 C1     *011      -0.0000    0.0000    0.0000   -0.0000    0.0001   -0.0001    0.0009   -0.0019    0.0024   -0.0030
       15 C1     *002      -0.0001    0.0001    0.0000   -0.0000   -0.0008    0.0012   -0.0026    0.0046   -0.0050    0.0044
       16 C2     1s         0.6076   -0.6891   -0.3568    0.1253   -0.0375    0.0532   -0.0911    0.1147   -0.0584   -0.0523
       17 C2     2s         0.0168   -0.0191   -0.0098    0.0033   -0.0012    0.0017    0.1750   -0.2204    0.1134    0.1044
       18 C2     *s        -0.0063    0.0086    0.0064   -0.0044    0.0031   -0.0042    0.1082   -0.1550    0.0723    0.0949
       19 C2     2px        0.0001   -0.0001   -0.0001    0.0001    0.0001   -0.0001    0.0165    0.0429   -0.1286    0.1601
       20 C2     *px        0.0007    0.0004    0.0007   -0.0011   -0.0008    0.0013    0.0120   -0.0009   -0.0305    0.0495
       21 C2     2py       -0.0001    0.0001    0.0001   -0.0001    0.0001   -0.0001   -0.0358    0.0429   -0.0196    0.0014
       22 C2     *py        0.0007   -0.0009   -0.0005    0.0007   -0.0006    0.0006    0.0061   -0.0079    0.0102    0.0117
       23 C2     2pz       -0.0000    0.0000    0.0000   -0.0000    0.0000   -0.0000   -0.0048    0.0055   -0.0021   -0.0005
       24 C2     *pz        0.0001   -0.0001   -0.0001    0.0001   -0.0001    0.0001    0.0008   -0.0010    0.0015    0.0013
       25 C2     *200      -0.0006    0.0007    0.0002    0.0001   -0.0001    0.0001    0.0059   -0.0052   -0.0002    0.0019
       26 C2     *110       0.0002   -0.0001    0.0001   -0.0001    0.0000   -0.0000   -0.0020   -0.0031    0.0100   -0.0119
       27 C2     *101       0.0000   -0.0000    0.0000   -0.0000    0.0000   -0.0000   -0.0004   -0.0003    0.0013   -0.0016
       28 C2     *020      -0.0007    0.0008    0.0003    0.0000   -0.0001    0.0001    0.0025   -0.0032    0.0014    0.0043
       29 C2     *011       0.0000   -0.0001   -0.0001    0.0000   -0.0000    0.0000    0.0019   -0.0022    0.0009    0.0019
       30 C2     *002      -0.0009    0.0009    0.0004   -0.0001    0.0000   -0.0000   -0.0044    0.0051   -0.0020   -0.0026
       31 H3     1s        -0.0000    0.0000    0.0000    0.0000   -0.0001    0.0001    0.0234   -0.0490    0.0653   -0.0997
       32 H3     *s         0.0002   -0.0002    0.0001    0.0000    0.0012   -0.0016    0.0021   -0.0089    0.0189   -0.0414
       33 H4     1s        -0.0001    0.0001   -0.0000   -0.0000   -0.0001    0.0001    0.0272   -0.0510    0.0595   -0.0817
       34 H4     *s        -0.0001    0.0002   -0.0000    0.0000    0.0012   -0.0017    0.0044   -0.0081    0.0100   -0.0331
       35 C5     1s         0.3582   -0.1237    0.6061   -0.6931    0.0014   -0.0023   -0.1201    0.0410    0.0925   -0.0777
       36 C5     2s         0.0098   -0.0036    0.0166   -0.0194   -0.0000   -0.0000    0.2290   -0.0792   -0.1785    0.1551
       37 C5     *s        -0.0009   -0.0008   -0.0063    0.0134    0.0000    0.0012    0.1603   -0.0433   -0.1309    0.1331
       38 C5     2px       -0.0001   -0.0001   -0.0002   -0.0000    0.0000   -0.0000    0.0308    0.0753   -0.1054   -0.1229
       39 C5     *px        0.0000    0.0014    0.0014    0.0013    0.0003    0.0006   -0.0030    0.0250   -0.0318   -0.0391
       40 C5     2py       -0.0000    0.0001    0.0000   -0.0002    0.0000   -0.0000    0.0457   -0.0175   -0.0319    0.0109
       41 C5     *py       -0.0004   -0.0004   -0.0004    0.0016   -0.0003    0.0005   -0.0026    0.0090    0.0149   -0.0103
       42 C5     2pz       -0.0000    0.0000    0.0000   -0.0000    0.0000   -0.0000    0.0059   -0.0026   -0.0038    0.0019
       43 C5     *pz       -0.0001   -0.0001   -0.0001    0.0002   -0.0000    0.0001   -0.0003    0.0011    0.0021   -0.0012
       44 C5     *200      -0.0005    0.0003   -0.0005    0.0005    0.0001   -0.0001    0.0070   -0.0033   -0.0016    0.0010
       45 C5     *110       0.0002   -0.0001   -0.0000   -0.0001   -0.0000    0.0000    0.0016    0.0060   -0.0086   -0.0084
       46 C5     *101       0.0000   -0.0000   -0.0000   -0.0000   -0.0000    0.0000    0.0001    0.0008   -0.0011   -0.0011
       47 C5     *020      -0.0006    0.0003   -0.0007    0.0006    0.0000   -0.0000    0.0030   -0.0020   -0.0031    0.0056
       48 C5     *011       0.0000    0.0000    0.0000   -0.0001    0.0000   -0.0000    0.0023   -0.0011   -0.0018    0.0024
       49 C5     *002      -0.0006    0.0002   -0.0008    0.0009   -0.0000   -0.0000   -0.0056    0.0022    0.0037   -0.0033
       50 H6     1s        -0.0002    0.0001   -0.0000    0.0000   -0.0000    0.0000    0.0439   -0.0578    0.0311    0.0450
       51 H6     *s         0.0009   -0.0012   -0.0010    0.0003   -0.0001    0.0003    0.0045   -0.0053    0.0029    0.0135
       52 C7     1s         0.3573    0.1272    0.6061    0.6929    0.0021    0.0017   -0.1201   -0.0410    0.0925    0.0777
       53 C7     2s         0.0098    0.0037    0.0166    0.0194   -0.0000    0.0000    0.2290    0.0792   -0.1785   -0.1551
       54 C7     *s        -0.0009    0.0008   -0.0063   -0.0134   -0.0004   -0.0011    0.1603    0.0433   -0.1309   -0.1331
       55 C7     2px        0.0001   -0.0001    0.0002   -0.0000   -0.0000   -0.0000   -0.0308    0.0753    0.1054   -0.1229
       56 C7     *px       -0.0000    0.0014   -0.0014    0.0013   -0.0001    0.0007    0.0030    0.0250    0.0318   -0.0391
       57 C7     2py        0.0000    0.0001   -0.0000   -0.0002   -0.0000   -0.0000   -0.0457   -0.0175    0.0319    0.0109
       58 C7     *py        0.0004   -0.0004    0.0005    0.0016    0.0004    0.0004    0.0026    0.0090   -0.0149   -0.0103
       59 C7     2pz        0.0000    0.0000   -0.0000   -0.0000   -0.0000   -0.0000   -0.0059   -0.0026    0.0038    0.0019
       60 C7     *pz        0.0001   -0.0001    0.0001    0.0002    0.0001    0.0001    0.0003    0.0011   -0.0021   -0.0012
       61 C7     *200      -0.0005   -0.0003   -0.0005   -0.0005    0.0001    0.0000    0.0070    0.0033   -0.0016   -0.0010
       62 C7     *110       0.0002    0.0001   -0.0000    0.0001   -0.0000   -0.0000    0.0016   -0.0060   -0.0086    0.0084
       63 C7     *101       0.0000    0.0000   -0.0000    0.0000   -0.0000   -0.0000    0.0001   -0.0008   -0.0011    0.0011
       64 C7     *020      -0.0006   -0.0003   -0.0007   -0.0006    0.0000    0.0000    0.0030    0.0020   -0.0031   -0.0056
       65 C7     *011       0.0000   -0.0000    0.0000    0.0001    0.0000    0.0000    0.0023    0.0011   -0.0018   -0.0024
       66 C7     *002      -0.0006   -0.0002   -0.0008   -0.0009   -0.0000    0.0000   -0.0056   -0.0022    0.0037    0.0033
       67 H8     1s        -0.0002    0.0000   -0.0001    0.0001   -0.0000    0.0000    0.0580   -0.0208   -0.0495    0.0597
       68 H8     *s         0.0002   -0.0002    0.0011   -0.0015   -0.0001    0.0002    0.0058   -0.0008   -0.0032    0.0188
       69 C9     1s         0.6022    0.6934   -0.3577   -0.1253   -0.0531   -0.0376   -0.0911   -0.1147   -0.0583    0.0523
       70 C9     2s         0.0166    0.0192   -0.0099   -0.0033   -0.0017   -0.0012    0.1750    0.2204    0.1134   -0.1043
       71 C9     *s        -0.0062   -0.0087    0.0065    0.0044    0.0043    0.0029    0.1082    0.1550    0.0723   -0.0949
       72 C9     2px       -0.0001   -0.0001    0.0001    0.0001   -0.0001   -0.0001   -0.0165    0.0429    0.1286    0.1601
       73 C9     *px       -0.0007    0.0004   -0.0007   -0.0011    0.0012    0.0009   -0.0120   -0.0009    0.0305    0.0495
       74 C9     2py        0.0001    0.0001   -0.0001   -0.0001   -0.0001   -0.0001    0.0358    0.0429    0.0196    0.0014
       75 C9     *py       -0.0007   -0.0009    0.0005    0.0007    0.0007    0.0004   -0.0061   -0.0079   -0.0102    0.0117
       76 C9     2pz        0.0000    0.0000   -0.0000   -0.0000   -0.0000   -0.0000    0.0048    0.0055    0.0021   -0.0005
       77 C9     *pz       -0.0001   -0.0001    0.0001    0.0001    0.0001    0.0000   -0.0008   -0.0010   -0.0015    0.0013
       78 C9     *200      -0.0006   -0.0007    0.0002   -0.0001   -0.0001   -0.0001    0.0059    0.0052   -0.0002   -0.0019
       79 C9     *110       0.0002    0.0001    0.0001    0.0001    0.0000    0.0000   -0.0020    0.0031    0.0100    0.0119
       80 C9     *101       0.0000    0.0000    0.0000    0.0000    0.0000    0.0000   -0.0004    0.0003    0.0013    0.0016
       81 C9     *020      -0.0007   -0.0008    0.0003   -0.0000   -0.0001   -0.0001    0.0025    0.0032    0.0014   -0.0043
       82 C9     *011       0.0000    0.0001   -0.0001   -0.0000   -0.0000   -0.0000    0.0019    0.0022    0.0009   -0.0019
       83 C9     *002      -0.0009   -0.0010    0.0004    0.0001    0.0000    0.0000   -0.0044   -0.0051   -0.0020    0.0026
       84 H10    1s        -0.0002   -0.0000   -0.0001   -0.0001   -0.0000    0.0000    0.0580    0.0208   -0.0495   -0.0597
       85 H10    *s         0.0002    0.0002    0.0011    0.0015   -0.0002   -0.0002    0.0058    0.0008   -0.0032   -0.0188
       86 C11    1s         0.0381    0.0446   -0.0247   -0.0101    0.8115    0.5732   -0.0561   -0.0998   -0.1058   -0.0942
       87 C11    2s         0.0008    0.0010   -0.0007   -0.0003    0.0224    0.0159    0.1053    0.1880    0.1998    0.1814
       88 C11    *s         0.0025    0.0024   -0.0012   -0.0006   -0.0098   -0.0070    0.0852    0.1506    0.1698    0.1711
       89 C11    2px        0.0001    0.0001   -0.0000   -0.0000   -0.0000   -0.0000   -0.0477   -0.0685   -0.0425    0.0624
       90 C11    *px       -0.0013   -0.0012    0.0004    0.0003    0.0007    0.0006   -0.0075   -0.0089   -0.0059    0.0289
       91 C11    2py        0.0000    0.0000   -0.0001   -0.0000   -0.0000    0.0000   -0.0189   -0.0328   -0.0316    0.0068
       92 C11    *py       -0.0002   -0.0001    0.0003   -0.0000    0.0003    0.0002   -0.0039   -0.0018    0.0039    0.0070
       93 C11    2pz        0.0000    0.0000   -0.0000   -0.0000   -0.0000    0.0000   -0.0023   -0.0041   -0.0040    0.0007
       94 C11    *pz       -0.0000   -0.0000    0.0000   -0.0000    0.0000    0.0000   -0.0005   -0.0002    0.0005    0.0008
       95 C11    *200      -0.0001   -0.0001    0.0001    0.0001   -0.0008   -0.0006    0.0035    0.0056    0.0051    0.0028
       96 C11    *110      -0.0000   -0.0000    0.0000    0.0000    0.0001    0.0001    0.0029    0.0040    0.0025   -0.0048
       97 C11    *101      -0.0000   -0.0000    0.0000    0.0000    0.0000    0.0000    0.0003    0.0004    0.0002   -0.0007
       98 C11    *020      -0.0001   -0.0002    0.0001    0.0001   -0.0009   -0.0006    0.0010    0.0026    0.0039    0.0066
       99 C11    *011      -0.0000   -0.0000    0.0000    0.0000    0.0001    0.0001    0.0009    0.0019    0.0024    0.0030
      100 C11    *002      -0.0001   -0.0001    0.0000    0.0000   -0.0012   -0.0008   -0.0026   -0.0046   -0.0050   -0.0044
      101 H12    1s        -0.0002   -0.0001   -0.0000   -0.0000   -0.0000   -0.0000    0.0439    0.0578    0.0311   -0.0450
      102 H12    *s         0.0009    0.0012   -0.0010   -0.0003   -0.0002   -0.0002    0.0045    0.0053    0.0029   -0.0135
      103 H13    1s        -0.0001   -0.0001   -0.0000    0.0000   -0.0001   -0.0001    0.0272    0.0510    0.0595    0.0817
      104 H13    *s        -0.0001   -0.0002   -0.0000   -0.0000    0.0017    0.0012    0.0044    0.0081    0.0100    0.0331
      105 H14    1s        -0.0000   -0.0000    0.0000   -0.0000   -0.0001   -0.0001    0.0234    0.0490    0.0653    0.0997
      106 H14    *s         0.0002    0.0002    0.0001   -0.0000    0.0017    0.0011    0.0021    0.0089    0.0189    0.0414

          Orbital           11        12        13        14        15        16        17        18        19        20    
          Energy           -0.7585   -0.7534   -0.6572   -0.6300   -0.5908   -0.5598   -0.5359   -0.5154   -0.4873   -0.4589
          Occ. No.          2.0000    2.0000    2.0000    2.0000    2.0000    2.0000    2.0000    2.0000    2.0000    2.0000

        1 C1     1s         0.0226   -0.0696   -0.0126    0.0104   -0.0032    0.0063    0.0165   -0.0080   -0.0051   -0.0000
        2 C1     2s        -0.0441    0.1351    0.0246   -0.0188    0.0086   -0.0150   -0.0357    0.0172    0.0109    0.0000
        3 C1     *s        -0.0432    0.1422    0.0386   -0.0337   -0.0190    0.0014   -0.0246    0.0036    0.0221    0.0000
        4 C1     2px        0.0185   -0.1156   -0.1689    0.0505    0.2953   -0.0692   -0.1829   -0.0415    0.1347    0.0006
        5 C1     *px        0.0089   -0.0469   -0.0703    0.0155    0.1204   -0.0147   -0.0704   -0.0470    0.0843    0.0004
        6 C1     2py        0.0823   -0.0973    0.1103    0.2065   -0.0148   -0.2494   -0.0210    0.2120   -0.1021   -0.0185
        7 C1     *py        0.0263   -0.0303    0.0529    0.0889   -0.0210   -0.1276   -0.0011    0.1248   -0.0679   -0.0133
        8 C1     2pz        0.0108   -0.0124    0.0152    0.0271   -0.0031   -0.0327   -0.0020    0.0282   -0.0140    0.1405
        9 C1     *pz        0.0034   -0.0038    0.0073    0.0117   -0.0032   -0.0168    0.0001    0.0167   -0.0093    0.1009
       10 C1     *200      -0.0002    0.0012    0.0023    0.0032   -0.0026   -0.0071    0.0008    0.0101   -0.0084    0.0000
       11 C1     *110       0.0038   -0.0100   -0.0088    0.0036    0.0175    0.0002   -0.0101   -0.0101    0.0139   -0.0014
       12 C1     *101       0.0005   -0.0014   -0.0012    0.0005    0.0023    0.0001   -0.0013   -0.0014    0.0019    0.0109
       13 C1     *020      -0.0030    0.0076    0.0005   -0.0069   -0.0029    0.0104    0.0024   -0.0111    0.0072   -0.0007
       14 C1     *011      -0.0011    0.0030    0.0003   -0.0021   -0.0010    0.0028    0.0007   -0.0029    0.0018    0.0050
       15 C1     *002       0.0012   -0.0034   -0.0006    0.0007    0.0005   -0.0000    0.0000   -0.0003    0.0001    0.0006
       16 C2     1s        -0.0484    0.0877    0.0131   -0.0143   -0.0197   -0.0125    0.0058    0.0041    0.0153    0.0000
       17 C2     2s         0.0946   -0.1743   -0.0304    0.0268    0.0417    0.0240   -0.0135   -0.0064   -0.0334   -0.0000
       18 C2     *s         0.0981   -0.1697   -0.0090    0.0308    0.0237    0.0468    0.0153   -0.0128   -0.0516   -0.0000
       19 C2     2px       -0.0175   -0.0226   -0.0297   -0.1850   -0.1736    0.1898    0.1318    0.0246   -0.1959    0.0008
       20 C2     *px       -0.0007   -0.0128   -0.0044   -0.0544   -0.0669    0.0560    0.0647    0.0190   -0.0768    0.0005
       21 C2     2py        0.1354   -0.0931    0.1992    0.0879   -0.1615    0.0971    0.1147   -0.2068    0.1532   -0.0267
       22 C2     *py        0.0509   -0.0494    0.0694    0.0412   -0.0649    0.0563    0.0483   -0.1365    0.1055   -0.0180
       23 C2     2pz        0.0179   -0.0122    0.0264    0.0123   -0.0206    0.0121    0.0146   -0.0274    0.0210    0.2024
       24 C2     *pz        0.0067   -0.0065    0.0092    0.0057   -0.0083    0.0072    0.0061   -0.0181    0.0142    0.1364
       25 C2     *200      -0.0009    0.0017    0.0001   -0.0024    0.0007   -0.0037   -0.0052    0.0102   -0.0074    0.0000
       26 C2     *110       0.0038    0.0017    0.0013    0.0047    0.0125   -0.0032   -0.0112   -0.0063    0.0139   -0.0001
       27 C2     *101       0.0005    0.0002    0.0002    0.0006    0.0016   -0.0004   -0.0014   -0.0009    0.0019    0.0002
       28 C2     *020       0.0051   -0.0081    0.0028    0.0026   -0.0045    0.0073    0.0078   -0.0133    0.0081    0.0011
       29 C2     *011       0.0019   -0.0032    0.0007    0.0008   -0.0012    0.0021    0.0022   -0.0036    0.0020   -0.0084
       30 C2     *002      -0.0022    0.0037    0.0000   -0.0005   -0.0002   -0.0006   -0.0001    0.0002    0.0004   -0.0011
       31 H3     1s        -0.0077    0.0879    0.1270    0.0243   -0.1614   -0.0508    0.0807    0.1122   -0.1196   -0.0000
       32 H3     *s        -0.0028    0.0434    0.0798    0.0138   -0.1220   -0.0308    0.0734    0.0845   -0.1040   -0.0000
       33 H4     1s        -0.0647    0.1163   -0.0451   -0.1331   -0.0007    0.1583    0.0084   -0.1435    0.0832   -0.0000
       34 H4     *s        -0.0374    0.0643   -0.0273   -0.0885   -0.0085    0.1192    0.0193   -0.1218    0.0756   -0.0000
       35 C5     1s         0.0706   -0.0343   -0.0048   -0.0000    0.0369    0.0128    0.0109   -0.0161    0.0094   -0.0000
       36 C5     2s        -0.1387    0.0663    0.0106   -0.0033   -0.0769   -0.0234   -0.0244    0.0348   -0.0213    0.0000
       37 C5     *s        -0.1401    0.0654   -0.0125   -0.0006   -0.0722   -0.0391   -0.0043    0.0373   -0.0200    0.0000
       38 C5     2px        0.0172    0.1121    0.2107    0.1088    0.0323   -0.0368   -0.2218   -0.0943    0.2012    0.0011
       39 C5     *px        0.0124    0.0351    0.0733    0.0353    0.0277   -0.0241   -0.0682   -0.0180    0.0876    0.0007
       40 C5     2py        0.1788   -0.0294    0.0995   -0.1947    0.0170    0.1503   -0.2260    0.1090   -0.1459   -0.0354
       41 C5     *py        0.0691   -0.0186    0.0303   -0.0904    0.0212    0.0894   -0.1286    0.0607   -0.0940   -0.0247
       42 C5     2pz        0.0235   -0.0043    0.0123   -0.0261    0.0021    0.0200   -0.0289    0.0148   -0.0201    0.2682
       43 C5     *pz        0.0091   -0.0026    0.0037   -0.0121    0.0027    0.0119   -0.0167    0.0081   -0.0128    0.1869
       44 C5     *200       0.0009   -0.0019   -0.0008   -0.0018    0.0045    0.0047   -0.0088    0.0025   -0.0084    0.0000
       45 C5     *110       0.0014    0.0116    0.0088    0.0020    0.0047   -0.0086   -0.0099   -0.0008    0.0148   -0.0011
       46 C5     *101       0.0002    0.0015    0.0012    0.0003    0.0006   -0.0012   -0.0012   -0.0001    0.0020    0.0085
       47 C5     *020      -0.0077    0.0022   -0.0030    0.0043   -0.0054   -0.0070    0.0138   -0.0031    0.0092   -0.0014
       48 C5     *011      -0.0029    0.0009   -0.0009    0.0012   -0.0017   -0.0020    0.0038   -0.0007    0.0023    0.0108
       49 C5     *002       0.0032   -0.0012    0.0002   -0.0004    0.0010    0.0004   -0.0001   -0.0003    0.0003    0.0014
       50 H6     1s         0.1141   -0.1263    0.0998    0.0622   -0.0823    0.0805    0.0812   -0.1539    0.0984   -0.0000
       51 H6     *s         0.0602   -0.0582    0.0682    0.0361   -0.0640    0.0572    0.0773   -0.1199    0.0869   -0.0000
       52 C7     1s        -0.0706   -0.0344   -0.0048    0.0000   -0.0369    0.0128    0.0109    0.0161    0.0094   -0.0000
       53 C7     2s         0.1387    0.0663    0.0106    0.0033    0.0769   -0.0234   -0.0244   -0.0348   -0.0213    0.0000
       54 C7     *s         0.1401    0.0654   -0.0125    0.0006    0.0722   -0.0391   -0.0043   -0.0373   -0.0200    0.0000
       55 C7     2px        0.0172   -0.1121   -0.2107    0.1088    0.0323    0.0368    0.2218   -0.0943   -0.2012    0.0011
       56 C7     *px        0.0124   -0.0351   -0.0733    0.0353    0.0277    0.0241    0.0682   -0.0180   -0.0876    0.0007
       57 C7     2py        0.1788    0.0294   -0.0995   -0.1946    0.0170   -0.1503    0.2260    0.1090    0.1459   -0.0354
       58 C7     *py        0.0691    0.0186   -0.0303   -0.0904    0.0212   -0.0894    0.1286    0.0607    0.0940   -0.0247
       59 C7     2pz        0.0235    0.0043   -0.0123   -0.0261    0.0021   -0.0200    0.0290    0.0148    0.0201    0.2682
       60 C7     *pz        0.0091    0.0026   -0.0037   -0.0121    0.0027   -0.0119    0.0167    0.0081    0.0128    0.1869
       61 C7     *200      -0.0009   -0.0019   -0.0008    0.0018   -0.0045    0.0047   -0.0088   -0.0025   -0.0084   -0.0000
       62 C7     *110      -0.0014    0.0116    0.0088   -0.0020   -0.0047   -0.0086   -0.0099    0.0008    0.0148    0.0011
       63 C7     *101      -0.0002    0.0015    0.0012   -0.0003   -0.0006   -0.0012   -0.0012    0.0001    0.0020   -0.0085
       64 C7     *020       0.0077    0.0022   -0.0030   -0.0043    0.0054   -0.0070    0.0138    0.0031    0.0092    0.0014
       65 C7     *011       0.0029    0.0009   -0.0009   -0.0012    0.0017   -0.0020    0.0038    0.0007    0.0023   -0.0108
       66 C7     *002      -0.0032   -0.0012    0.0002    0.0004   -0.0010    0.0004   -0.0001    0.0003    0.0003   -0.0014
       67 H8     1s        -0.1575    0.0435   -0.0557    0.1102   -0.0508   -0.1082    0.1551   -0.0555    0.1039   -0.0000
       68 H8     *s        -0.0829    0.0192   -0.0395    0.0682   -0.0303   -0.0696    0.1301   -0.0441    0.0989   -0.0000
       69 C9     1s         0.0484    0.0877    0.0131    0.0143    0.0197   -0.0125    0.0058   -0.0041    0.0153    0.0000
       70 C9     2s        -0.0945   -0.1743   -0.0304   -0.0268   -0.0417    0.0240   -0.0135    0.0065   -0.0334    0.0000
       71 C9     *s        -0.0981   -0.1697   -0.0090   -0.0308   -0.0237    0.0468    0.0153    0.0128   -0.0516   -0.0000
       72 C9     2px       -0.0175    0.0226    0.0297   -0.1850   -0.1737   -0.1898   -0.1318    0.0245    0.1959    0.0008
       73 C9     *px       -0.0007    0.0128    0.0044   -0.0544   -0.0669   -0.0560   -0.0647    0.0190    0.0768    0.0006
       74 C9     2py        0.1354    0.0931   -0.1993    0.0879   -0.1615   -0.0971   -0.1147   -0.2068   -0.1532   -0.0267
       75 C9     *py        0.0509    0.0494   -0.0694    0.0412   -0.0649   -0.0562   -0.0483   -0.1365   -0.1055   -0.0180
       76 C9     2pz        0.0179    0.0122   -0.0264    0.0123   -0.0206   -0.0121   -0.0146   -0.0274   -0.0210    0.2024
       77 C9     *pz        0.0067    0.0065   -0.0092    0.0057   -0.0083   -0.0072   -0.0061   -0.0181   -0.0142    0.1364
       78 C9     *200       0.0009    0.0017    0.0001    0.0024   -0.0007   -0.0037   -0.0052   -0.0102   -0.0074   -0.0000
       79 C9     *110      -0.0038    0.0017    0.0013   -0.0047   -0.0125   -0.0032   -0.0112    0.0063    0.0139    0.0001
       80 C9     *101      -0.0005    0.0002    0.0002   -0.0006   -0.0016   -0.0004   -0.0014    0.0009    0.0019   -0.0001
       81 C9     *020      -0.0051   -0.0081    0.0028   -0.0026    0.0045    0.0073    0.0078    0.0133    0.0081   -0.0011
       82 C9     *011      -0.0019   -0.0032    0.0007   -0.0008    0.0012    0.0021    0.0022    0.0036    0.0020    0.0084
       83 C9     *002       0.0022    0.0037    0.0000    0.0005    0.0002   -0.0006   -0.0001   -0.0002    0.0004    0.0011
       84 H10    1s         0.1575    0.0436   -0.0557   -0.1102    0.0508   -0.1082    0.1551    0.0555    0.1040   -0.0000
       85 H10    *s         0.0829    0.0192   -0.0395   -0.0682    0.0303   -0.0696    0.1301    0.0441    0.0989   -0.0000
       86 C11    1s        -0.0226   -0.0696   -0.0126   -0.0104    0.0032    0.0063    0.0165    0.0081   -0.0051   -0.0000
       87 C11    2s         0.0441    0.1351    0.0246    0.0188   -0.0086   -0.0150   -0.0357   -0.0172    0.0109    0.0000
       88 C11    *s         0.0431    0.1422    0.0386    0.0337    0.0190    0.0014   -0.0246   -0.0036    0.0221    0.0000
       89 C11    2px        0.0185    0.1156    0.1689    0.0505    0.2953    0.0691    0.1829   -0.0414   -0.1347    0.0006
       90 C11    *px        0.0089    0.0469    0.0703    0.0155    0.1204    0.0147    0.0704   -0.0470   -0.0843    0.0004
       91 C11    2py        0.0823    0.0973   -0.1103    0.2065   -0.0148    0.2494    0.0210    0.2120    0.1021   -0.0185
       92 C11    *py        0.0263    0.0303   -0.0529    0.0889   -0.0209    0.1276    0.0011    0.1248    0.0679   -0.0133
       93 C11    2pz        0.0108    0.0124   -0.0152    0.0270   -0.0031    0.0326    0.0020    0.0281    0.0140    0.1405
       94 C11    *pz        0.0034    0.0038   -0.0073    0.0117   -0.0032    0.0168   -0.0001    0.0167    0.0093    0.1009
       95 C11    *200       0.0002    0.0012    0.0023   -0.0032    0.0026   -0.0071    0.0008   -0.0101   -0.0084   -0.0000
       96 C11    *110      -0.0038   -0.0100   -0.0088   -0.0036   -0.0175    0.0002   -0.0101    0.0101    0.0139    0.0014
       97 C11    *101      -0.0005   -0.0014   -0.0012   -0.0005   -0.0023    0.0001   -0.0013    0.0014    0.0019   -0.0109
       98 C11    *020       0.0030    0.0076    0.0005    0.0069    0.0029    0.0104    0.0024    0.0111    0.0072    0.0007
       99 C11    *011       0.0011    0.0030    0.0003    0.0021    0.0010    0.0028    0.0007    0.0028    0.0018   -0.0050
      100 C11    *002      -0.0012   -0.0034   -0.0006   -0.0007   -0.0005   -0.0000    0.0000    0.0003    0.0001   -0.0006
      101 H12    1s        -0.1141   -0.1263    0.0998   -0.0622    0.0823    0.0805    0.0812    0.1539    0.0984   -0.0000
      102 H12    *s        -0.0602   -0.0582    0.0682   -0.0361    0.0640    0.0572    0.0773    0.1199    0.0869   -0.0000
      103 H13    1s         0.0647    0.1163   -0.0451    0.1331    0.0007    0.1583    0.0084    0.1435    0.0832    0.0000
      104 H13    *s         0.0374    0.0643   -0.0273    0.0885    0.0085    0.1192    0.0193    0.1218    0.0756   -0.0000
      105 H14    1s         0.0077    0.0879    0.1270   -0.0243    0.1614   -0.0508    0.0807   -0.1122   -0.1197   -0.0000
      106 H14    *s         0.0028    0.0434    0.0798   -0.0137    0.1220   -0.0308    0.0734   -0.0845   -0.1040   -0.0000

          Orbital           21        22        23        24        25        26        27        28        29        30    
          Energy           -0.3889   -0.2897    0.1080    0.2158    0.2424    0.2681    0.2692    0.2736    0.2934    0.3063
          Occ. No.          2.0000    2.0000    0.0000    0.0000    0.0000    0.0000    0.0000    0.0000    0.0000    0.0000

        1 C1     1s         0.0000   -0.0000   -0.0000   -0.0000    0.0129    0.0666   -0.0001    0.0626   -0.0578   -0.0171
        2 C1     2s        -0.0000    0.0000    0.0000    0.0000   -0.0111   -0.0720    0.0002   -0.0607    0.0690    0.0279
        3 C1     *s        -0.0000   -0.0000    0.0000    0.0000   -0.2529   -1.1399    0.0025   -1.1852    0.8880    0.3054
        4 C1     2px       -0.0010    0.0010   -0.0009    0.0008   -0.0256    0.1164   -0.0006    0.1273    0.0212   -0.0219
        5 C1     *px       -0.0008    0.0009   -0.0016    0.0020   -0.0610    0.4869   -0.0025    0.4453   -0.0106   -0.1571
        6 C1     2py        0.0326   -0.0323    0.0317   -0.0283    0.0939    0.0376    0.0106    0.0146   -0.1369    0.0997
        7 C1     *py        0.0265   -0.0307    0.0525   -0.0673    0.2525    0.2127    0.0484    0.0921   -0.3955    0.4837
        8 C1     2pz       -0.2470    0.2448   -0.2397    0.2146    0.0125    0.0043   -0.0811    0.0014   -0.0182    0.0132
        9 C1     *pz       -0.2009    0.2323   -0.3976    0.5098    0.0336    0.0253   -0.3701    0.0104   -0.0522    0.0645
       10 C1     *200      -0.0001    0.0000    0.0000   -0.0001   -0.0031    0.0027    0.0000    0.0030    0.0021    0.0007
       11 C1     *110       0.0020   -0.0014   -0.0012    0.0022    0.0040   -0.0073   -0.0010   -0.0075   -0.0063    0.0001
       12 C1     *101      -0.0156    0.0106    0.0088   -0.0173    0.0006   -0.0009    0.0083   -0.0010   -0.0009    0.0000
       13 C1     *020       0.0011   -0.0009   -0.0002    0.0015    0.0026    0.0010   -0.0016    0.0002   -0.0050   -0.0021
       14 C1     *011      -0.0079    0.0066    0.0017   -0.0111    0.0003   -0.0002    0.0121   -0.0006   -0.0008   -0.0008
       15 C1     *002      -0.0010    0.0008    0.0002   -0.0014    0.0013    0.0021    0.0016    0.0026   -0.0019    0.0008
       16 C2     1s        -0.0000    0.0000   -0.0000   -0.0000   -0.0336    0.0334   -0.0001    0.0289    0.0328   -0.0260
       17 C2     2s         0.0000   -0.0000   -0.0000    0.0000    0.0348   -0.0274    0.0001   -0.0134   -0.0478    0.0377
       18 C2     *s        -0.0000    0.0000    0.0000    0.0000    0.5096   -0.7756    0.0017   -0.8447   -0.3749    0.2382
       19 C2     2px       -0.0011    0.0006    0.0006   -0.0011   -0.0031   -0.0333    0.0008   -0.0098    0.0491    0.0656
       20 C2     *px       -0.0008    0.0006    0.0010   -0.0022   -0.0790   -0.1522    0.0027   -0.2801    0.3046    0.4471
       21 C2     2py        0.0353   -0.0213   -0.0201    0.0378    0.1252   -0.0861   -0.0249   -0.1141   -0.1322    0.0017
       22 C2     *py        0.0272   -0.0194   -0.0334    0.0749    0.3316   -0.3046   -0.0782   -0.4133   -0.5988   -0.2452
       23 C2     2pz       -0.2674    0.1614    0.1524   -0.2866    0.0165   -0.0108    0.1902   -0.0151   -0.0176   -0.0000
       24 C2     *pz       -0.2063    0.1466    0.2527   -0.5677    0.0441   -0.0382    0.5974   -0.0535   -0.0803   -0.0341
       25 C2     *200       0.0000   -0.0001    0.0001   -0.0000    0.0049   -0.0017   -0.0000   -0.0022    0.0002    0.0072
       26 C2     *110      -0.0016    0.0031   -0.0033    0.0008   -0.0004   -0.0021    0.0008    0.0012    0.0119    0.0114
       27 C2     *101       0.0121   -0.0233    0.0246   -0.0067   -0.0001   -0.0003   -0.0058    0.0002    0.0016    0.0015
       28 C2     *020      -0.0013    0.0006    0.0001    0.0014   -0.0060    0.0029   -0.0023    0.0023    0.0027   -0.0091
       29 C2     *011       0.0097   -0.0043   -0.0009   -0.0106   -0.0010    0.0006    0.0173    0.0002    0.0004   -0.0026
       30 C2     *002       0.0013   -0.0005   -0.0002   -0.0014   -0.0023    0.0008    0.0024    0.0015    0.0011    0.0005
       31 H3     1s         0.0000   -0.0000    0.0000   -0.0000   -0.0072    0.0267   -0.0001    0.0264    0.0069    0.0147
       32 H3     *s         0.0000    0.0000   -0.0000   -0.0000   -0.1993    0.9432   -0.0021    0.9910   -0.0388   -0.5258
       33 H4     1s         0.0000   -0.0000    0.0000   -0.0000    0.0112    0.0038   -0.0000    0.0041   -0.0323   -0.0225
       34 H4     *s         0.0000    0.0000   -0.0000   -0.0000    0.5218    0.7485   -0.0016    0.5941   -1.1097    0.3845
       35 C5     1s        -0.0000    0.0000   -0.0000    0.0000    0.0361    0.0235   -0.0001    0.0074    0.0221    0.0664
       36 C5     2s         0.0000    0.0000   -0.0000   -0.0000   -0.0410   -0.0394    0.0001   -0.0058   -0.0147   -0.0597
       37 C5     *s         0.0000   -0.0000    0.0000   -0.0001   -0.4580   -0.3221    0.0007   -0.2099   -0.6299   -1.4495
       38 C5     2px       -0.0003   -0.0010    0.0010    0.0004   -0.0040   -0.0505   -0.0009    0.0278    0.0192    0.0448
       39 C5     *px       -0.0002   -0.0009    0.0014    0.0008    0.0549   -0.2362   -0.0026   -0.1861    0.3513    0.2603
       40 C5     2py        0.0094    0.0335   -0.0318   -0.0144    0.1484    0.0449    0.0337    0.0830    0.0175    0.1498
       41 C5     *py        0.0069    0.0309   -0.0452   -0.0245    0.4800    0.2163    0.1038    0.6667    0.0434    0.7194
       42 C5     2pz       -0.0709   -0.2537    0.2408    0.1093    0.0196    0.0055   -0.2558    0.0109    0.0022    0.0196
       43 C5     *pz       -0.0522   -0.2339    0.3425    0.1855    0.0632    0.0277   -0.7896    0.0888    0.0043    0.0939
       44 C5     *200       0.0000   -0.0001   -0.0001    0.0001   -0.0047    0.0040    0.0000    0.0056    0.0007    0.0000
       45 C5     *110      -0.0016    0.0027    0.0027   -0.0024    0.0011    0.0124   -0.0005    0.0052   -0.0018   -0.0127
       46 C5     *101       0.0118   -0.0210   -0.0204    0.0184    0.0002    0.0016    0.0040    0.0006   -0.0002   -0.0017
       47 C5     *020       0.0004    0.0010   -0.0000    0.0005    0.0062   -0.0017   -0.0032   -0.0051   -0.0006    0.0023
       48 C5     *011      -0.0031   -0.0073    0.0004   -0.0041    0.0010   -0.0004    0.0237   -0.0014   -0.0003    0.0003
       49 C5     *002      -0.0005   -0.0009    0.0001   -0.0006    0.0023   -0.0001    0.0032    0.0001    0.0005    0.0014
       50 H6     1s         0.0000    0.0000   -0.0000   -0.0000   -0.0267    0.0015   -0.0000   -0.0009    0.0129   -0.0665
       51 H6     *s         0.0000    0.0000   -0.0000   -0.0000   -0.8197    0.6709   -0.0015    0.7890    0.9840   -0.1748
       52 C7     1s         0.0000   -0.0000   -0.0000    0.0000   -0.0361   -0.0235    0.0001    0.0074    0.0221    0.0664
       53 C7     2s        -0.0000    0.0000    0.0000   -0.0000    0.0410    0.0394   -0.0001   -0.0058   -0.0147   -0.0597
       54 C7     *s        -0.0000    0.0000   -0.0000   -0.0001    0.4580    0.3221   -0.0008   -0.2099   -0.6299   -1.4495
       55 C7     2px        0.0003   -0.0010   -0.0010    0.0004   -0.0040   -0.0505    0.0011   -0.0278   -0.0192   -0.0448
       56 C7     *px        0.0002   -0.0009   -0.0014    0.0007    0.0548   -0.2362    0.0038    0.1861   -0.3513   -0.2603
       57 C7     2py       -0.0094    0.0335    0.0318   -0.0144    0.1484    0.0448   -0.0339   -0.0830   -0.0175   -0.1498
       58 C7     *py       -0.0069    0.0309    0.0452   -0.0245    0.4801    0.2158   -0.1047   -0.6666   -0.0434   -0.7194
       59 C7     2pz        0.0709   -0.2537   -0.2408    0.1092    0.0196    0.0067    0.2558   -0.0109   -0.0022   -0.0196
       60 C7     *pz        0.0522   -0.2339   -0.3425    0.1855    0.0631    0.0313    0.7895   -0.0888   -0.0043   -0.0939
       61 C7     *200       0.0000    0.0001   -0.0001   -0.0001    0.0047   -0.0040    0.0000    0.0056    0.0007    0.0000
       62 C7     *110      -0.0016   -0.0027    0.0027    0.0024   -0.0011   -0.0124   -0.0004    0.0052   -0.0018   -0.0127
       63 C7     *101       0.0118    0.0210   -0.0204   -0.0184   -0.0002   -0.0016    0.0040    0.0006   -0.0002   -0.0017
       64 C7     *020       0.0004   -0.0010   -0.0000   -0.0005   -0.0062    0.0017   -0.0032   -0.0051   -0.0006    0.0023
       65 C7     *011      -0.0031    0.0073    0.0004    0.0041   -0.0010    0.0005    0.0237   -0.0014   -0.0003    0.0003
       66 C7     *002      -0.0005    0.0009    0.0001    0.0006   -0.0023    0.0001    0.0032    0.0001    0.0005    0.0014
       67 H8     1s         0.0000   -0.0000   -0.0000    0.0000    0.0303   -0.0129    0.0000   -0.0412   -0.0031    0.0128
       68 H8     *s         0.0000   -0.0000   -0.0000    0.0000    0.9989    0.3779   -0.0008    0.5971    0.2562    1.4036
       69 C9     1s        -0.0000    0.0000    0.0000   -0.0000    0.0337   -0.0334    0.0001    0.0289    0.0328   -0.0260
       70 C9     2s         0.0000   -0.0000   -0.0000    0.0000   -0.0348    0.0274   -0.0001   -0.0134   -0.0478    0.0376
       71 C9     *s         0.0000    0.0000   -0.0000    0.0000   -0.5096    0.7756   -0.0019   -0.8447   -0.3749    0.2381
       72 C9     2px        0.0011    0.0006   -0.0006   -0.0012   -0.0031   -0.0333   -0.0007    0.0098   -0.0491   -0.0656
       73 C9     *px        0.0008    0.0006   -0.0010   -0.0023   -0.0790   -0.1522   -0.0020    0.2801   -0.3046   -0.4471
       74 C9     2py       -0.0353   -0.0213    0.0201    0.0378    0.1252   -0.0860    0.0253    0.1141    0.1322   -0.0017
       75 C9     *py       -0.0272   -0.0193    0.0334    0.0749    0.3316   -0.3042    0.0796    0.4133    0.5988    0.2452
       76 C9     2pz        0.2674    0.1614   -0.1524   -0.2866    0.0165   -0.0117   -0.1901    0.0150    0.0176    0.0001
       77 C9     *pz        0.2063    0.1466   -0.2527   -0.5677    0.0441   -0.0409   -0.5972    0.0535    0.0803    0.0342
       78 C9     *200       0.0000    0.0001    0.0001    0.0000   -0.0049    0.0017   -0.0000   -0.0022    0.0001    0.0072
       79 C9     *110      -0.0016   -0.0031   -0.0033   -0.0008    0.0004    0.0021    0.0008    0.0012    0.0119    0.0114
       80 C9     *101       0.0121    0.0233    0.0246    0.0067    0.0001    0.0002   -0.0058    0.0002    0.0016    0.0015
       81 C9     *020      -0.0013   -0.0006    0.0001   -0.0014    0.0060   -0.0029   -0.0023    0.0023    0.0027   -0.0091
       82 C9     *011       0.0097    0.0043   -0.0009    0.0106    0.0010   -0.0005    0.0173    0.0002    0.0004   -0.0026
       83 C9     *002       0.0013    0.0005   -0.0002    0.0014    0.0023   -0.0008    0.0024    0.0015    0.0010    0.0005
       84 H10    1s        -0.0000   -0.0000    0.0000    0.0000   -0.0303    0.0129   -0.0000   -0.0412   -0.0031    0.0128
       85 H10    *s        -0.0000   -0.0000    0.0000    0.0000   -0.9989   -0.3779    0.0009    0.5971    0.2562    1.4036
       86 C11    1s        -0.0000    0.0000    0.0000   -0.0000   -0.0129   -0.0666    0.0002    0.0626   -0.0578   -0.0171
       87 C11    2s         0.0000   -0.0000   -0.0000    0.0000    0.0111    0.0720   -0.0002   -0.0607    0.0690    0.0279
       88 C11    *s         0.0000   -0.0000   -0.0000    0.0000    0.2529    1.1399   -0.0027   -1.1851    0.8880    0.3054
       89 C11    2px        0.0010    0.0010    0.0010    0.0009   -0.0256    0.1165    0.0000   -0.1273   -0.0212    0.0219
       90 C11    *px        0.0008    0.0009    0.0016    0.0021   -0.0610    0.4869    0.0003   -0.4453    0.0106    0.1571
       91 C11    2py       -0.0326   -0.0323   -0.0316   -0.0283    0.0939    0.0376   -0.0108   -0.0146    0.1369   -0.0996
       92 C11    *py       -0.0265   -0.0307   -0.0525   -0.0673    0.2525    0.2125   -0.0493   -0.0920    0.3955   -0.4836
       93 C11    2pz        0.2470    0.2448    0.2397    0.2146    0.0125    0.0047    0.0811   -0.0014    0.0181   -0.0132
       94 C11    *pz        0.2009    0.2323    0.3976    0.5098    0.0336    0.0269    0.3700   -0.0104    0.0521   -0.0645
       95 C11    *200      -0.0001   -0.0000    0.0000    0.0001    0.0031   -0.0027    0.0000    0.0030    0.0021    0.0007
       96 C11    *110       0.0020    0.0014   -0.0012   -0.0022   -0.0040    0.0073   -0.0011   -0.0075   -0.0063    0.0001
       97 C11    *101      -0.0156   -0.0106    0.0088    0.0173   -0.0006    0.0010    0.0083   -0.0010   -0.0009    0.0000
       98 C11    *020       0.0011    0.0009   -0.0002   -0.0015   -0.0026   -0.0010   -0.0016    0.0002   -0.0050   -0.0021
       99 C11    *011      -0.0079   -0.0066    0.0017    0.0111   -0.0003    0.0003    0.0121   -0.0006   -0.0008   -0.0008
      100 C11    *002      -0.0010   -0.0008    0.0002    0.0014   -0.0013   -0.0021    0.0016    0.0026   -0.0019    0.0008
      101 H12    1s        -0.0000    0.0000    0.0000   -0.0000    0.0267   -0.0015    0.0000   -0.0009    0.0129   -0.0665
      102 H12    *s        -0.0000    0.0000    0.0000    0.0000    0.8197   -0.6709    0.0016    0.7890    0.9840   -0.1747
      103 H13    1s         0.0000    0.0000   -0.0000   -0.0000   -0.0112   -0.0038    0.0000    0.0041   -0.0323   -0.0225
      104 H13    *s        -0.0000    0.0000    0.0000   -0.0000   -0.5218   -0.7485    0.0017    0.5941   -1.1098    0.3845
      105 H14    1s        -0.0000    0.0000    0.0000   -0.0000    0.0072   -0.0267    0.0001    0.0264    0.0069    0.0147
      106 H14    *s        -0.0000    0.0000    0.0000   -0.0000    0.1993   -0.9432    0.0023    0.9910   -0.0388   -0.5258

          Orbital           31        32        33        34        35        36        37        38    
          Energy            0.3409    0.3521    0.3601    0.4749    0.4942    0.5329    0.5370    0.5978
          Occ. No.          0.0000    0.0000    0.0000    0.0000    0.0000    0.0000    0.0000    0.0000

        1 C1     1s        -0.0226   -0.0651   -0.0201   -0.0315    0.0496   -0.0076    0.0319   -0.0366
        2 C1     2s         0.0223    0.0577    0.0238   -0.0283    0.0601    0.0525   -0.0002    0.0721
        3 C1     *s         0.5005    1.2761    0.1169    2.0186   -1.7822   -0.8677   -1.7775    0.8442
        4 C1     2px       -0.0927   -0.0233   -0.1212    0.0368    0.1238    0.0758   -0.0618    0.0830
        5 C1     *px       -0.4092    0.2473   -0.6887    1.6878   -1.5825   -0.0373   -1.4020    0.9553
        6 C1     2py        0.1803   -0.0766    0.1315    0.0120    0.0688   -0.1025   -0.0711   -0.0207
        7 C1     *py        1.1231   -0.1679    0.8881    0.3979    0.0525   -0.8065   -1.3561    1.0384
        8 C1     2pz        0.0242   -0.0100    0.0178    0.0014    0.0086   -0.0138   -0.0092   -0.0031
        9 C1     *pz        0.1499   -0.0232    0.1200    0.0458    0.0132   -0.1063   -0.1735    0.1333
       10 C1     *200      -0.0026    0.0024   -0.0028    0.0018    0.0005   -0.0245   -0.0025   -0.0061
       11 C1     *110       0.0005   -0.0096   -0.0030   -0.0086    0.0155    0.0189    0.0162   -0.0101
       12 C1     *101       0.0001   -0.0013   -0.0004   -0.0012    0.0021    0.0027    0.0022   -0.0013
       13 C1     *020       0.0039   -0.0032    0.0016    0.0095   -0.0079    0.0196   -0.0054    0.0085
       14 C1     *011       0.0014   -0.0001    0.0007    0.0040   -0.0043    0.0047   -0.0023    0.0014
       15 C1     *002      -0.0015   -0.0027   -0.0011   -0.0051    0.0077    0.0018    0.0030    0.0036
       16 C2     1s         0.0553    0.0545    0.0504    0.0509   -0.0640    0.0565   -0.0300    0.0055
       17 C2     2s        -0.0749   -0.0584   -0.0606   -0.0455   -0.0288   -0.0732    0.0515    0.0498
       18 C2     *s        -0.9861   -1.1615   -0.8546   -1.9293    3.2959   -0.5831    0.9773   -0.8242
       19 C2     2px       -0.0734    0.0224   -0.0214   -0.0384   -0.0970   -0.1315   -0.1238    0.2562
       20 C2     *px        0.2472    0.1996   -0.1727    1.1693    0.4701   -1.8119   -2.3679    1.3497
       21 C2     2py       -0.0220   -0.0417   -0.0794    0.1776   -0.1554    0.0879    0.0082   -0.0445
       22 C2     *py       -0.4029   -0.0837   -0.8508    1.9205   -1.8010    0.2923   -0.3014   -0.5475
       23 C2     2pz       -0.0026   -0.0056   -0.0104    0.0236   -0.0201    0.0121    0.0016   -0.0069
       24 C2     *pz       -0.0542   -0.0118   -0.1117    0.2489   -0.2397    0.0458   -0.0304   -0.0776
       25 C2     *200       0.0101   -0.0007    0.0067   -0.0046    0.0226    0.0192   -0.0014    0.0078
       26 C2     *110      -0.0127    0.0095   -0.0155   -0.0013    0.0150   -0.0127   -0.0069    0.0161
       27 C2     *101      -0.0018    0.0013   -0.0021   -0.0001    0.0017   -0.0019   -0.0009    0.0021
       28 C2     *020      -0.0085    0.0009   -0.0036   -0.0024   -0.0034   -0.0109    0.0049   -0.0122
       29 C2     *011      -0.0021   -0.0001   -0.0009   -0.0009    0.0011   -0.0014    0.0011   -0.0050
       30 C2     *002      -0.0005    0.0013    0.0001    0.0009   -0.0078   -0.0055    0.0008    0.0060
       31 H3     1s        -0.0099    0.0177   -0.0076    0.0491   -0.0516   -0.1420   -0.0820    0.0343
       32 H3     *s        -1.3080   -0.2334   -1.3155    0.5174   -0.3453    0.5380   -0.0650    0.1242
       33 H4     1s         0.0089   -0.0374    0.0015    0.0527   -0.0531    0.1237   -0.0573    0.0946
       34 H4     *s         1.0187   -0.9085    0.7936   -0.0917    0.6065   -0.5935   -0.8542    0.6331
       35 C5     1s        -0.0351    0.0457   -0.0337   -0.0171    0.0268   -0.1120   -0.0181   -0.0333
       36 C5     2s         0.0888   -0.0530    0.0605    0.0642    0.0232    0.0659    0.0605    0.0244
       37 C5     *s        -0.1359   -0.9447    0.1760   -1.0505   -1.5635    3.6784    0.3874    1.7004
       38 C5     2px       -0.0763   -0.0433   -0.1008   -0.0015   -0.0035   -0.1159    0.0171    0.2135
       39 C5     *px       -0.3480   -0.3522   -0.1360   -1.7400    1.8287    0.6755   -0.9412    2.4592
       40 C5     2py        0.0219    0.1197    0.0212   -0.0512   -0.1211    0.1875    0.1146    0.0416
       41 C5     *py       -0.1568    0.3535    0.2271   -1.2189   -1.3563    1.4560    1.7026    0.8004
       42 C5     2pz        0.0032    0.0160    0.0032   -0.0068   -0.0160    0.0252    0.0151    0.0047
       43 C5     *pz       -0.0193    0.0481    0.0305   -0.1540   -0.1863    0.1895    0.2285    0.0958
       44 C5     *200      -0.0119   -0.0057    0.0000   -0.0214   -0.0131   -0.0050    0.0080    0.0026
       45 C5     *110       0.0075    0.0144    0.0057    0.0084   -0.0021    0.0079    0.0141   -0.0379
       46 C5     *101       0.0011    0.0019    0.0008    0.0013   -0.0002    0.0011    0.0018   -0.0050
       47 C5     *020       0.0048    0.0070   -0.0049    0.0095    0.0055    0.0150   -0.0061    0.0058
       48 C5     *011       0.0004    0.0017   -0.0021    0.0014    0.0008    0.0040   -0.0023    0.0019
       49 C5     *002       0.0033    0.0005    0.0026    0.0042    0.0024   -0.0001    0.0023   -0.0007
       50 H6     1s        -0.0306    0.0259    0.0024   -0.0083   -0.0456   -0.0486    0.0312   -0.0660
       51 H6     *s         0.7252    0.6705    1.2041   -1.3001    0.7350   -0.0138   -0.0056    0.6565
       52 C7     1s         0.0351   -0.0457   -0.0337    0.0171    0.0268    0.1120   -0.0181    0.0333
       53 C7     2s        -0.0888    0.0530    0.0605   -0.0642    0.0232   -0.0659    0.0605   -0.0244
       54 C7     *s         0.1359    0.9447    0.1759    1.0506   -1.5634   -3.6785    0.3879   -1.7004
       55 C7     2px       -0.0763   -0.0433    0.1008   -0.0015    0.0035   -0.1159   -0.0171    0.2135
       56 C7     *px       -0.3480   -0.3522    0.1361   -1.7399   -1.8288    0.6755    0.9410    2.4592
       57 C7     2py        0.0219    0.1197   -0.0212   -0.0512    0.1211    0.1875   -0.1147    0.0416
       58 C7     *py       -0.1567    0.3534   -0.2271   -1.2189    1.3562    1.4559   -1.7028    0.8004
       59 C7     2pz        0.0032    0.0160   -0.0032   -0.0068    0.0160    0.0252   -0.0151    0.0046
       60 C7     *pz       -0.0193    0.0481   -0.0305   -0.1539    0.1863    0.1895   -0.2285    0.0958
       61 C7     *200       0.0119    0.0057    0.0000    0.0214   -0.0131    0.0050    0.0080   -0.0026
       62 C7     *110      -0.0075   -0.0144    0.0057   -0.0084   -0.0021   -0.0079    0.0141    0.0379
       63 C7     *101      -0.0011   -0.0019    0.0008   -0.0013   -0.0002   -0.0011    0.0018    0.0050
       64 C7     *020      -0.0048   -0.0070   -0.0049   -0.0095    0.0055   -0.0150   -0.0061   -0.0058
       65 C7     *011      -0.0004   -0.0017   -0.0021   -0.0014    0.0008   -0.0040   -0.0023   -0.0019
       66 C7     *002      -0.0033   -0.0005    0.0026   -0.0042    0.0024    0.0001    0.0023    0.0007
       67 H8     1s         0.0062    0.0582   -0.0414    0.0379    0.0443    0.0173   -0.0070    0.0267
       68 H8     *s        -0.2353    1.0215   -0.0536   -0.9332   -0.7675    0.2568    1.4302    0.3301
       69 C9     1s        -0.0553   -0.0545    0.0504   -0.0509   -0.0640   -0.0565   -0.0300   -0.0055
       70 C9     2s         0.0749    0.0584   -0.0606    0.0455   -0.0288    0.0732    0.0515   -0.0498
       71 C9     *s         0.9861    1.1614   -0.8547    1.9292    3.2961    0.5832    0.9773    0.8243
       72 C9     2px       -0.0734    0.0224    0.0214   -0.0384    0.0970   -0.1315    0.1238    0.2562
       73 C9     *px        0.2472    0.1996    0.1727    1.1693   -0.4700   -1.8117    2.3681    1.3499
       74 C9     2py       -0.0221   -0.0417    0.0794    0.1776    0.1554    0.0879   -0.0082   -0.0446
       75 C9     *py       -0.4029   -0.0836    0.8508    1.9205    1.8011    0.2924    0.3015   -0.5474
       76 C9     2pz       -0.0026   -0.0056    0.0104    0.0236    0.0201    0.0121   -0.0016   -0.0069
       77 C9     *pz       -0.0542   -0.0118    0.1116    0.2487    0.2396    0.0459    0.0303   -0.0777
       78 C9     *200      -0.0101    0.0007    0.0067    0.0046    0.0226   -0.0192   -0.0014   -0.0078
       79 C9     *110       0.0127   -0.0095   -0.0155    0.0013    0.0150    0.0127   -0.0069   -0.0161
       80 C9     *101       0.0018   -0.0013   -0.0021    0.0001    0.0017    0.0019   -0.0009   -0.0021
       81 C9     *020       0.0085   -0.0009   -0.0036    0.0024   -0.0034    0.0109    0.0049    0.0122
       82 C9     *011       0.0021    0.0001   -0.0009    0.0009    0.0011    0.0014    0.0011    0.0050
       83 C9     *002       0.0005   -0.0013    0.0001   -0.0009   -0.0078    0.0055    0.0008   -0.0060
[...]

                H13     H14   
      1s       0.5205  0.5212
      2s       0.0000  0.0000
      2px      0.0000  0.0000
      2pz      0.0000  0.0000
      2py      0.0000  0.0000
      *s       0.2975  0.2987
      *px      0.0000  0.0000
      *pz      0.0000  0.0000
      *py      0.0000  0.0000
      *200     0.0000  0.0000
      *110     0.0000  0.0000
      *101     0.0000  0.0000
      *020     0.0000  0.0000
      *011     0.0000  0.0000
      *002     0.0000  0.0000
      Total    0.8180  0.8199

      N-E      0.1820  0.1801

      Total electronic charge=   44.000000

      Total            charge=   -0.000000
--



      Expectation values of various properties for root number:  2
      -----------------------------------------------------------


++    Molecular properties:
      ---------------------

      Charge (e):
                      =   -0.0000
      Dipole Moment (Debye):
      Origin of the operator (Ang)=    0.0000    0.0000    0.0000
                   X= -2.0371E-05               Y=  1.2654E-06               Z= -4.6685E-05           Total=  5.0952E-05
      Quadrupole Moment (Debye*Ang):
      Origin of the operator (Ang)=   -3.9709    2.5515    0.0000
                  XX= -3.5374E+01              XY= -1.4590E+00              XZ= -2.1804E-01              YY= -3.3325E+01
                  YZ=  1.1180E+00              ZZ= -4.1602E+01
      In traceless form (Debye*Ang)
                  XX=  2.0890E+00              XY= -2.1885E+00              XZ= -3.2706E-01              YY=  5.1631E+00
                  YZ=  1.6770E+00              ZZ= -7.2521E+00
--

      Von Neumann Entropy (Root   3) =  2.28569


      Mulliken population analysis for root number:  3
      -----------------------------------------------


++    Molecular charges:
      ------------------

      Mulliken charges per centre and basis function type
      ---------------------------------------------------

                C1      C2      H3      H4      C5      H6      C7      H8      C9      H10     C11     H12   
      1s       1.9964  1.9965  0.5212  0.5205  1.9965  0.5237  1.9965  0.5227  1.9965  0.5227  1.9964  0.5237
      2s       0.6595  0.6680  0.0000  0.0000  0.6679  0.0000  0.6679  0.0000  0.6680  0.0000  0.6595  0.0000
      2px      0.7438  0.7431  0.0000  0.0000  0.7433  0.0000  0.7433  0.0000  0.7431  0.0000  0.7438  0.0000
      2pz      0.5325  0.5396  0.0000  0.0000  0.5419  0.0000  0.5419  0.0000  0.5396  0.0000  0.5325  0.0000
      2py      0.7134  0.7127  0.0000  0.0000  0.7101  0.0000  0.7101  0.0000  0.7127  0.0000  0.7134  0.0000
      *s       0.6073  0.4938  0.2987  0.2975  0.5080  0.2846  0.5080  0.2838  0.4938  0.2838  0.6073  0.2846
      *px      0.2655  0.1834  0.0000  0.0000  0.1991  0.0000  0.1991  0.0000  0.1834  0.0000  0.2655  0.0000
      *pz      0.4747  0.4497  0.0000  0.0000  0.4344  0.0000  0.4344  0.0000  0.4497  0.0000  0.4747  0.0000
      *py      0.3507  0.3104  0.0000  0.0000  0.3187  0.0000  0.3187  0.0000  0.3104  0.0000  0.3507  0.0000
      *200     0.0286  0.0224  0.0000  0.0000  0.0226  0.0000  0.0226  0.0000  0.0224  0.0000  0.0286  0.0000
      *110     0.0134  0.0136  0.0000  0.0000  0.0135  0.0000  0.0135  0.0000  0.0136  0.0000  0.0134  0.0000
      *101     0.0052  0.0099  0.0000  0.0000  0.0090  0.0000  0.0090  0.0000  0.0099  0.0000  0.0052  0.0000
      *020     0.0321  0.0317  0.0000  0.0000  0.0317  0.0000  0.0317  0.0000  0.0317  0.0000  0.0321  0.0000
      *011     0.0019  0.0028  0.0000  0.0000  0.0026  0.0000  0.0026  0.0000  0.0028  0.0000  0.0019  0.0000
      *002    -0.0193 -0.0179  0.0000  0.0000 -0.0177  0.0000 -0.0177  0.0000 -0.0179  0.0000 -0.0193  0.0000
      Total    6.4057  6.1598  0.8199  0.8180  6.1816  0.8083  6.1816  0.8066  6.1598  0.8066  6.4057  0.8083

      N-E     -0.4057 -0.1598  0.1801  0.1820 -0.1816  0.1917 -0.1816  0.1934 -0.1598  0.1934 -0.4057  0.1917

                H13     H14   
      1s       0.5205  0.5212
      2s       0.0000  0.0000
      2px      0.0000  0.0000
      2pz      0.0000  0.0000
      2py      0.0000  0.0000
      *s       0.2975  0.2987
      *px      0.0000  0.0000
      *pz      0.0000  0.0000
      *py      0.0000  0.0000
      *200     0.0000  0.0000
      *110     0.0000  0.0000
      *101     0.0000  0.0000
      *020     0.0000  0.0000
      *011     0.0000  0.0000
      *002     0.0000  0.0000
      Total    0.8180  0.8199

      N-E      0.1820  0.1801

      Total electronic charge=   44.000000

      Total            charge=   -0.000000
--



      Expectation values of various properties for root number:  3
      -----------------------------------------------------------


++    Molecular properties:
      ---------------------

      Charge (e):
                      =   -0.0000
      Dipole Moment (Debye):
      Origin of the operator (Ang)=    0.0000    0.0000    0.0000
                   X=  1.2482E-05               Y= -4.7700E-06               Z= -4.2932E-05           Total=  4.4963E-05
      Quadrupole Moment (Debye*Ang):
      Origin of the operator (Ang)=   -3.9709    2.5515    0.0000
                  XX= -3.6411E+01              XY= -1.0813E+00              XZ= -1.6343E-01              YY= -3.3455E+01
                  YZ=  1.0791E+00              ZZ= -4.1454E+01
      In traceless form (Debye*Ang)
                  XX=  1.0435E+00              XY= -1.6220E+00              XZ= -2.4515E-01              YY=  5.4775E+00
                  YZ=  1.6187E+00              ZZ= -6.5210E+00
--

      Von Neumann Entropy (Root   4) =  1.28997


      Mulliken population analysis for root number:  4
      -----------------------------------------------


++    Molecular charges:
      ------------------

      Mulliken charges per centre and basis function type
      ---------------------------------------------------

                C1      C2      H3      H4      C5      H6      C7      H8      C9      H10     C11     H12   
      1s       1.9964  1.9965  0.5212  0.5205  1.9965  0.5237  1.9965  0.5227  1.9965  0.5227  1.9964  0.5237
      2s       0.6595  0.6680  0.0000  0.0000  0.6679  0.0000  0.6679  0.0000  0.6680  0.0000  0.6595  0.0000
      2px      0.7438  0.7431  0.0000  0.0000  0.7433  0.0000  0.7433  0.0000  0.7431  0.0000  0.7438  0.0000
      2pz      0.5436  0.5233  0.0000  0.0000  0.5322  0.0000  0.5322  0.0000  0.5233  0.0000  0.5436  0.0000
      2py      0.7136  0.7124  0.0000  0.0000  0.7099  0.0000  0.7099  0.0000  0.7124  0.0000  0.7136  0.0000
      *s       0.6073  0.4938  0.2987  0.2975  0.5080  0.2846  0.5080  0.2838  0.4938  0.2838  0.6073  0.2846
      *px      0.2655  0.1834  0.0000  0.0000  0.1991  0.0000  0.1991  0.0000  0.1834  0.0000  0.2655  0.0000
      *pz      0.4904  0.4422  0.0000  0.0000  0.4431  0.0000  0.4431  0.0000  0.4422  0.0000  0.4904  0.0000
      *py      0.3510  0.3103  0.0000  0.0000  0.3189  0.0000  0.3189  0.0000  0.3103  0.0000  0.3510  0.0000
      *200     0.0286  0.0224  0.0000  0.0000  0.0226  0.0000  0.0226  0.0000  0.0224  0.0000  0.0286  0.0000
      *110     0.0134  0.0136  0.0000  0.0000  0.0135  0.0000  0.0135  0.0000  0.0136  0.0000  0.0134  0.0000
      *101     0.0049  0.0097  0.0000  0.0000  0.0084  0.0000  0.0084  0.0000  0.0097  0.0000  0.0049  0.0000
      *020     0.0321  0.0317  0.0000  0.0000  0.0317  0.0000  0.0317  0.0000  0.0317  0.0000  0.0321  0.0000
      *011     0.0017  0.0024  0.0000  0.0000  0.0022  0.0000  0.0022  0.0000  0.0024  0.0000  0.0017  0.0000
      *002    -0.0193 -0.0179  0.0000  0.0000 -0.0177  0.0000 -0.0177  0.0000 -0.0179  0.0000 -0.0193  0.0000
      Total    6.4325  6.1350  0.8199  0.8180  6.1796  0.8083  6.1796  0.8066  6.1350  0.8066  6.4325  0.8083

      N-E     -0.4325 -0.1350  0.1801  0.1820 -0.1796  0.1917 -0.1796  0.1934 -0.1350  0.1934 -0.4325  0.1917

                H13     H14   
      1s       0.5205  0.5212
      2s       0.0000  0.0000
      2px      0.0000  0.0000
      2pz      0.0000  0.0000
      2py      0.0000  0.0000
      *s       0.2975  0.2987
      *px      0.0000  0.0000
      *pz      0.0000  0.0000
      *py      0.0000  0.0000
      *200     0.0000  0.0000
      *110     0.0000  0.0000
      *101     0.0000  0.0000
      *020     0.0000  0.0000
      *011     0.0000  0.0000
      *002     0.0000  0.0000
      Total    0.8180  0.8199

      N-E      0.1820  0.1801

      Total electronic charge=   44.000000

      Total            charge=   -0.000000
--



      Expectation values of various properties for root number:  4
      -----------------------------------------------------------


++    Molecular properties:
      ---------------------

      Charge (e):
                      =   -0.0000
      Dipole Moment (Debye):
      Origin of the operator (Ang)=    0.0000    0.0000    0.0000
                   X=  3.4295E-05               Y=  1.5147E-06               Z= -2.5422E-05           Total=  4.2717E-05
      Quadrupole Moment (Debye*Ang):
      Origin of the operator (Ang)=   -3.9709    2.5515    0.0000
                  XX= -3.6729E+01              XY= -9.0838E-01              XZ= -1.4000E-01              YY= -3.2997E+01
                  YZ=  1.1610E+00              ZZ= -4.1611E+01
      In traceless form (Debye*Ang)
                  XX=  5.7528E-01              XY= -1.3626E+00              XZ= -2.1000E-01              YY=  6.1728E+00
                  YZ=  1.7415E+00              ZZ= -6.7481E+00
--

      Von Neumann Entropy (Root   5) =  2.61048


      Mulliken population analysis for root number:  5
      -----------------------------------------------


++    Molecular charges:
      ------------------

      Mulliken charges per centre and basis function type
      ---------------------------------------------------

                C1      C2      H3      H4      C5      H6      C7      H8      C9      H10     C11     H12   
      1s       1.9964  1.9965  0.5212  0.5205  1.9965  0.5237  1.9965  0.5227  1.9965  0.5227  1.9964  0.5237
      2s       0.6595  0.6680  0.0000  0.0000  0.6679  0.0000  0.6679  0.0000  0.6680  0.0000  0.6595  0.0000
      2px      0.7438  0.7431  0.0000  0.0000  0.7433  0.0000  0.7433  0.0000  0.7431  0.0000  0.7438  0.0000
      2pz      0.5308  0.5419  0.0000  0.0000  0.5523  0.0000  0.5523  0.0000  0.5419  0.0000  0.5308  0.0000
      2py      0.7134  0.7127  0.0000  0.0000  0.7103  0.0000  0.7103  0.0000  0.7127  0.0000  0.7134  0.0000
      *s       0.6073  0.4938  0.2987  0.2975  0.5080  0.2846  0.5080  0.2838  0.4938  0.2838  0.6073  0.2846
      *px      0.2655  0.1834  0.0000  0.0000  0.1991  0.0000  0.1991  0.0000  0.1834  0.0000  0.2655  0.0000
      *pz      0.4727  0.4323  0.0000  0.0000  0.4419  0.0000  0.4419  0.0000  0.4323  0.0000  0.4727  0.0000
      *py      0.3507  0.3101  0.0000  0.0000  0.3188  0.0000  0.3188  0.0000  0.3101  0.0000  0.3507  0.0000
      *200     0.0286  0.0224  0.0000  0.0000  0.0226  0.0000  0.0226  0.0000  0.0224  0.0000  0.0286  0.0000
      *110     0.0134  0.0136  0.0000  0.0000  0.0135  0.0000  0.0135  0.0000  0.0136  0.0000  0.0134  0.0000
      *101     0.0055  0.0097  0.0000  0.0000  0.0095  0.0000  0.0095  0.0000  0.0097  0.0000  0.0055  0.0000
      *020     0.0321  0.0317  0.0000  0.0000  0.0317  0.0000  0.0317  0.0000  0.0317  0.0000  0.0321  0.0000
      *011     0.0021  0.0026  0.0000  0.0000  0.0029  0.0000  0.0029  0.0000  0.0026  0.0000  0.0021  0.0000
      *002    -0.0193 -0.0179  0.0000  0.0000 -0.0177  0.0000 -0.0177  0.0000 -0.0179  0.0000 -0.0193  0.0000
      Total    6.4024  6.1442  0.8199  0.8180  6.2006  0.8083  6.2006  0.8066  6.1442  0.8066  6.4024  0.8083

      N-E     -0.4024 -0.1442  0.1801  0.1820 -0.2006  0.1917 -0.2006  0.1934 -0.1442  0.1934 -0.4024  0.1917

                H13     H14   
      1s       0.5205  0.5212
      2s       0.0000  0.0000
      2px      0.0000  0.0000
      2pz      0.0000  0.0000
      2py      0.0000  0.0000
      *s       0.2975  0.2987
      *px      0.0000  0.0000
      *pz      0.0000  0.0000
      *py      0.0000  0.0000
      *200     0.0000  0.0000
      *110     0.0000  0.0000
      *101     0.0000  0.0000
      *020     0.0000  0.0000
      *011     0.0000  0.0000
      *002     0.0000  0.0000
      Total    0.8180  0.8199

      N-E      0.1820  0.1801

      Total electronic charge=   44.000000

      Total            charge=   -0.000000
--



      Expectation values of various properties for root number:  5
      -----------------------------------------------------------


++    Molecular properties:
      ---------------------

      Charge (e):
                      =   -0.0000
      Dipole Moment (Debye):
      Origin of the operator (Ang)=    0.0000    0.0000    0.0000
                   X=  7.4598E-06               Y= -4.0239E-06               Z= -4.6621E-05           Total=  4.7385E-05
      Quadrupole Moment (Debye*Ang):
      Origin of the operator (Ang)=   -3.9709    2.5515    0.0000
                  XX= -3.6309E+01              XY= -1.0500E+00              XZ= -1.5925E-01              YY= -3.3666E+01
                  YZ=  1.0359E+00              ZZ= -4.1344E+01
      In traceless form (Debye*Ang)
                  XX=  1.1961E+00              XY= -1.5750E+00              XZ= -2.3887E-01              YY=  5.1606E+00
                  YZ=  1.5538E+00              ZZ= -6.3566E+00
--

      Von Neumann Entropy (Root   6) =  1.89468


      Mulliken population analysis for root number:  6
      -----------------------------------------------


++    Molecular charges:
      ------------------

      Mulliken charges per centre and basis function type
      ---------------------------------------------------

                C1      C2      H3      H4      C5      H6      C7      H8      C9      H10     C11     H12   
      1s       1.9964  1.9965  0.5212  0.5205  1.9965  0.5237  1.9965  0.5227  1.9965  0.5227  1.9964  0.5237
      2s       0.6595  0.6680  0.0000  0.0000  0.6679  0.0000  0.6679  0.0000  0.6680  0.0000  0.6595  0.0000
      2px      0.7438  0.7431  0.0000  0.0000  0.7433  0.0000  0.7433  0.0000  0.7431  0.0000  0.7438  0.0000
      2pz      0.5482  0.5309  0.0000  0.0000  0.5325  0.0000  0.5325  0.0000  0.5309  0.0000  0.5482  0.0000
      2py      0.7137  0.7125  0.0000  0.0000  0.7099  0.0000  0.7099  0.0000  0.7125  0.0000  0.7137  0.0000
      *s       0.6073  0.4938  0.2987  0.2975  0.5080  0.2846  0.5080  0.2838  0.4938  0.2838  0.6073  0.2846
      *px      0.2655  0.1834  0.0000  0.0000  0.1991  0.0000  0.1991  0.0000  0.1834  0.0000  0.2655  0.0000
      *pz      0.4956  0.4274  0.0000  0.0000  0.4395  0.0000  0.4395  0.0000  0.4274  0.0000  0.4956  0.0000
      *py      0.3511  0.3100  0.0000  0.0000  0.3188  0.0000  0.3188  0.0000  0.3100  0.0000  0.3511  0.0000
      *200     0.0286  0.0224  0.0000  0.0000  0.0226  0.0000  0.0226  0.0000  0.0224  0.0000  0.0286  0.0000
      *110     0.0134  0.0136  0.0000  0.0000  0.0135  0.0000  0.0135  0.0000  0.0136  0.0000  0.0134  0.0000
      *101     0.0052  0.0091  0.0000  0.0000  0.0089  0.0000  0.0089  0.0000  0.0091  0.0000  0.0052  0.0000
      *020     0.0321  0.0317  0.0000  0.0000  0.0317  0.0000  0.0317  0.0000  0.0317  0.0000  0.0321  0.0000
      *011     0.0019  0.0026  0.0000  0.0000  0.0024  0.0000  0.0024  0.0000  0.0026  0.0000  0.0019  0.0000
      *002    -0.0193 -0.0179  0.0000  0.0000 -0.0177  0.0000 -0.0177  0.0000 -0.0179  0.0000 -0.0193  0.0000
      Total    6.4430  6.1272  0.8199  0.8180  6.1770  0.8083  6.1770  0.8066  6.1272  0.8066  6.4430  0.8083

      N-E     -0.4430 -0.1272  0.1801  0.1820 -0.1770  0.1917 -0.1770  0.1934 -0.1272  0.1934 -0.4430  0.1917

                H13     H14   
      1s       0.5205  0.5212
      2s       0.0000  0.0000
      2px      0.0000  0.0000
      2pz      0.0000  0.0000
      2py      0.0000  0.0000
      *s       0.2975  0.2987
      *px      0.0000  0.0000
      *pz      0.0000  0.0000
      *py      0.0000  0.0000
      *200     0.0000  0.0000
      *110     0.0000  0.0000
      *101     0.0000  0.0000
      *020     0.0000  0.0000
      *011     0.0000  0.0000
      *002     0.0000  0.0000
      Total    0.8180  0.8199

      N-E      0.1820  0.1801

      Total electronic charge=   44.000000

      Total            charge=   -0.000000
--



      Expectation values of various properties for root number:  6
      -----------------------------------------------------------


++    Molecular properties:
      ---------------------

      Charge (e):
                      =   -0.0000
      Dipole Moment (Debye):
      Origin of the operator (Ang)=    0.0000    0.0000    0.0000
                   X=  5.1676E-05               Y=  1.0954E-05               Z= -1.8298E-05           Total=  5.5904E-05
      Quadrupole Moment (Debye*Ang):
      Origin of the operator (Ang)=   -3.9709    2.5515    0.0000
                  XX= -3.7876E+01              XY= -8.5867E-01              XZ= -1.2836E-01              YY= -3.3207E+01
                  YZ=  1.1166E+00              ZZ= -4.1492E+01
      In traceless form (Debye*Ang)
                  XX= -5.2644E-01              XY= -1.2880E+00              XZ= -1.9254E-01              YY=  6.4767E+00
                  YZ=  1.6749E+00              ZZ= -5.9503E+00
--


      Input file to MOLDEN was generated!


      Input file to MOLDEN was generated!


      Input file to MOLDEN was generated!


      Input file to MOLDEN was generated!


      Input file to MOLDEN was generated!


      Input file to MOLDEN was generated!


      Input file to MOLDEN was generated!

      Average orbitals are written to the RASORB file
      Natural orbitals for root   1 are written to the RASORB.1 file
      Natural orbitals for root   2 are written to the RASORB.2 file
      Natural orbitals for root   3 are written to the RASORB.3 file
      Natural orbitals for root   4 are written to the RASORB.4 file
      Natural orbitals for root   5 are written to the RASORB.5 file
      Natural orbitals for root   6 are written to the RASORB.6 file
      Spin density orbitals for root   1 are written to the SPDORB.1 file
      Spin density orbitals for root   2 are written to the SPDORB.2 file
      Spin density orbitals for root   3 are written to the SPDORB.3 file
      Spin density orbitals for root   4 are written to the SPDORB.4 file
      Spin density orbitals for root   5 are written to the SPDORB.5 file
      Spin density orbitals for root   6 are written to the SPDORB.6 file

 ###############################################################################
 ###############################################################################
 ###                                                                         ###
 ###                                                                         ###
 ###    WARNING: RunFile label BirthCertificate                              ###
 ###    was used       55 times                                              ###
 ###                                                                         ###
 ###                                                                         ###
 ###############################################################################
 ###############################################################################
--- Stop Module: rasscf at Tue Jun 11 13:34:53 2024 /rc=_RC_ALL_IS_WELL_ ---
*** files: c6h8.rasscf.molden c6h8.rasscf.molden.5 c6h8.rasscf.molden.4 c6h8.rasscf.molden.6 c6h8.rasscf.molden.1 c6h8.rasscf.molden.2 c6h8.rasscf.molden.3 c6h8.RasOrb.5
           c6h8.RasOrb.6 c6h8.RasOrb c6h8.RasOrb.1 c6h8.RasOrb.3 c6h8.RasOrb.4 c6h8.RasOrb.2 c6h8.SpdOrb.3 c6h8.SpdOrb.2 c6h8.SpdOrb.5 c6h8.SpdOrb.6 c6h8.SpdOrb.4 c6h8.SpdOrb.1
           xmldump
    saved to directory /home/kenya/molcas_test/0604
--- Module rasscf spent 16 seconds ---

.##################.
.# Happy landing! #.
.##################.

    Timing: Wall=20.55 User=19.58 System=0.92
