[Molden Format]
[N_Atoms]
                   14
[Atoms] (AU)
C1          1      6         -13.23913777      4.40861767     -0.03165291
C2          2      6         -11.02473780      5.60795125      0.11791891
H3          3      1         -14.98949659      5.46709106      0.11502763
H4          4      1         -13.33107295      2.37593376     -0.29971056
C5          5      6          -8.61261579      4.21599788     -0.07543787
H6          6      1         -11.01368290      7.64390438      0.38671355
C7          7      6          -6.39505997      5.42714225      0.07557015
H8          8      1          -8.64774579      2.17847628     -0.34427031
C9          9      6          -3.98293796      4.03520778     -0.11782442
H10        10      1          -6.35994886      7.46468275      0.34438369
C11        11      6          -1.76855689      5.23456026      0.03153953
H12        12      1          -3.99399286      1.99923575     -0.38646789
H13        13      1          -1.67660281      7.26728196      0.29940821
H14        14      1          -0.01817917      4.17610576     -0.11519770
[Charge] (Mulliken)
 -0.44296131764007107     
 -0.12719054732690793     
  0.18006174740143732     
  0.18197856901391518     
 -0.17700367055724353     
  0.19167990297278248     
 -0.17700217495834902     
  0.19343334703078907     
 -0.12718818126487719     
  0.19343272269003065     
 -0.44295893009967546     
  0.19168033094196379     
  0.18197748455885610     
  0.18006071723616002     
[GTO] (AU)
   1
   s   6
  3.047524880E+03  1.834737132E-03
  4.573695180E+02  1.403732281E-02
  1.039486850E+02  6.884262227E-02
  2.921015530E+01  2.321844432E-01
  9.286662960E+00  4.679413484E-01
  3.163926960E+00  3.623119853E-01
   s   3
  7.868272350E+00 -1.193324198E-01
  1.881288540E+00 -1.608541517E-01
  5.442492580E-01  1.143456438E+00
   s   1
  1.687144782E-01  1.000000000E+00
   p   3
  7.868272350E+00  6.899906659E-02
  1.881288540E+00  3.164239610E-01
  5.442492580E-01  7.443082909E-01
   p   1
  1.687144782E-01  1.000000000E+00
   d   1
  8.000000000E-01  1.000000000E+00
 
   2
   s   6
  3.047524880E+03  1.834737132E-03
  4.573695180E+02  1.403732281E-02
  1.039486850E+02  6.884262227E-02
  2.921015530E+01  2.321844432E-01
  9.286662960E+00  4.679413484E-01
  3.163926960E+00  3.623119853E-01
   s   3
  7.868272350E+00 -1.193324198E-01
  1.881288540E+00 -1.608541517E-01
  5.442492580E-01  1.143456438E+00
   s   1
  1.687144782E-01  1.000000000E+00
   p   3
  7.868272350E+00  6.899906659E-02
  1.881288540E+00  3.164239610E-01
  5.442492580E-01  7.443082909E-01
   p   1
  1.687144782E-01  1.000000000E+00
   d   1
  8.000000000E-01  1.000000000E+00
 
   3
   s   3
  1.873113696E+01  3.349460434E-02
  2.825394365E+00  2.347269535E-01
  6.401216923E-01  8.137573261E-01
   s   1
  1.612777588E-01  1.000000000E+00
 
   4
   s   3
  1.873113696E+01  3.349460434E-02
  2.825394365E+00  2.347269535E-01
  6.401216923E-01  8.137573261E-01
   s   1
  1.612777588E-01  1.000000000E+00
 
   5
   s   6
  3.047524880E+03  1.834737132E-03
  4.573695180E+02  1.403732281E-02
  1.039486850E+02  6.884262227E-02
  2.921015530E+01  2.321844432E-01
  9.286662960E+00  4.679413484E-01
  3.163926960E+00  3.623119853E-01
   s   3
  7.868272350E+00 -1.193324198E-01
  1.881288540E+00 -1.608541517E-01
  5.442492580E-01  1.143456438E+00
   s   1
  1.687144782E-01  1.000000000E+00
   p   3
  7.868272350E+00  6.899906659E-02
  1.881288540E+00  3.164239610E-01
  5.442492580E-01  7.443082909E-01
   p   1
  1.687144782E-01  1.000000000E+00
   d   1
  8.000000000E-01  1.000000000E+00
 
   6
   s   3
  1.873113696E+01  3.349460434E-02
  2.825394365E+00  2.347269535E-01
  6.401216923E-01  8.137573261E-01
   s   1
  1.612777588E-01  1.000000000E+00
 
   7
   s   6
  3.047524880E+03  1.834737132E-03
  4.573695180E+02  1.403732281E-02
  1.039486850E+02  6.884262227E-02
  2.921015530E+01  2.321844432E-01
  9.286662960E+00  4.679413484E-01
  3.163926960E+00  3.623119853E-01
   s   3
  7.868272350E+00 -1.193324198E-01
  1.881288540E+00 -1.608541517E-01
  5.442492580E-01  1.143456438E+00
   s   1
  1.687144782E-01  1.000000000E+00
   p   3
  7.868272350E+00  6.899906659E-02
  1.881288540E+00  3.164239610E-01
  5.442492580E-01  7.443082909E-01
   p   1
  1.687144782E-01  1.000000000E+00
   d   1
  8.000000000E-01  1.000000000E+00
 
   8
   s   3
  1.873113696E+01  3.349460434E-02
  2.825394365E+00  2.347269535E-01
  6.401216923E-01  8.137573261E-01
   s   1
  1.612777588E-01  1.000000000E+00
 
   9
   s   6
  3.047524880E+03  1.834737132E-03
  4.573695180E+02  1.403732281E-02
  1.039486850E+02  6.884262227E-02
  2.921015530E+01  2.321844432E-01
  9.286662960E+00  4.679413484E-01
  3.163926960E+00  3.623119853E-01
   s   3
  7.868272350E+00 -1.193324198E-01
  1.881288540E+00 -1.608541517E-01
  5.442492580E-01  1.143456438E+00
   s   1
  1.687144782E-01  1.000000000E+00
   p   3
  7.868272350E+00  6.899906659E-02
  1.881288540E+00  3.164239610E-01
  5.442492580E-01  7.443082909E-01
   p   1
  1.687144782E-01  1.000000000E+00
   d   1
  8.000000000E-01  1.000000000E+00
 
  10
   s   3
  1.873113696E+01  3.349460434E-02
  2.825394365E+00  2.347269535E-01
  6.401216923E-01  8.137573261E-01
   s   1
  1.612777588E-01  1.000000000E+00
 
  11
   s   6
  3.047524880E+03  1.834737132E-03
  4.573695180E+02  1.403732281E-02
  1.039486850E+02  6.884262227E-02
  2.921015530E+01  2.321844432E-01
  9.286662960E+00  4.679413484E-01
  3.163926960E+00  3.623119853E-01
   s   3
  7.868272350E+00 -1.193324198E-01
  1.881288540E+00 -1.608541517E-01
  5.442492580E-01  1.143456438E+00
   s   1
  1.687144782E-01  1.000000000E+00
   p   3
  7.868272350E+00  6.899906659E-02
  1.881288540E+00  3.164239610E-01
  5.442492580E-01  7.443082909E-01
   p   1
  1.687144782E-01  1.000000000E+00
   d   1
  8.000000000E-01  1.000000000E+00
 
  12
   s   3
  1.873113696E+01  3.349460434E-02
  2.825394365E+00  2.347269535E-01
  6.401216923E-01  8.137573261E-01
   s   1
  1.612777588E-01  1.000000000E+00
 
  13
   s   3
  1.873113696E+01  3.349460434E-02
  2.825394365E+00  2.347269535E-01
  6.401216923E-01  8.137573261E-01
   s   1
  1.612777588E-01  1.000000000E+00
 
  14
   s   3
  1.873113696E+01  3.349460434E-02
  2.825394365E+00  2.347269535E-01
  6.401216923E-01  8.137573261E-01
   s   1
  1.612777588E-01  1.000000000E+00
 
[MO]
Sym=     1a  
Ene=   -11.2290
Spin= Alpha
Occup=    1.00000
   1         0.03079838
   2         0.00063932
   3         0.00232608
   4        -0.00010854
   5        -0.00004572
   6        -0.00000560
   7         0.00112999
   8         0.00023743
   9         0.00002686
  10        -0.00016423
  11        -0.00020083
  12        -0.00016206
  13        -0.00003667
  14        -0.00000483
  15        -0.00000586
  16         0.50226758
  17         0.01402446
  18        -0.00472904
  19        -0.00011222
  20        -0.00009710
  21        -0.00001237
  22         0.00109830
  23         0.00076446
  24         0.00009657
  25        -0.00098857
  26        -0.00114414
  27        -0.00129174
  28         0.00017471
  29         0.00002167
  30         0.00002219
  31        -0.00002522
  32         0.00021514
  33        -0.00008335
  34        -0.00007380
  35         0.49285774
  36         0.01366782
  37        -0.00226981
  38         0.00001101
  39         0.00003867
  40         0.00000506
  41         0.00005850
  42        -0.00052919
  43        -0.00007009
  44        -0.00115629
  45        -0.00127685
  46        -0.00133320
  47         0.00015808
  48         0.00002005
  49         0.00000809
  50        -0.00016080
  51         0.00062188
  52         0.49268481
  53         0.01366275
  54        -0.00227369
  55        -0.00001080
  56        -0.00003883
  57        -0.00000508
  58        -0.00006150
  59         0.00053018
  60         0.00007022
  61        -0.00115520
  62        -0.00127593
  63        -0.00133262
  64         0.00015780
  65         0.00002001
  66         0.00000814
  67        -0.00019105
  68         0.00039439
  69         0.50072660
  70         0.01398131
  71        -0.00470933
  72         0.00011199
  73         0.00009676
  74         0.00001232
  75        -0.00109894
  76        -0.00076220
  77        -0.00009616
  78        -0.00098598
  79        -0.00114111
  80        -0.00128801
  81         0.00017440
  82         0.00002160
  83         0.00002205
  84        -0.00019095
  85         0.00039428
  86         0.03070632
  87         0.00063715
  88         0.00232059
  89         0.00010821
  90         0.00004556
  91         0.00000558
  92        -0.00112747
  93        -0.00023720
  94        -0.00002677
  95        -0.00016356
  96        -0.00020017
  97        -0.00016165
  98        -0.00003654
  99        -0.00000481
 100        -0.00000582
 101        -0.00016059
 102         0.00061936
 103        -0.00008318
 104        -0.00007333
 105        -0.00002519
 106         0.00021480
Sym=     1a  
Ene=   -11.2290
Spin= Beta
Occup=    1.00000
   1         0.03079838
   2         0.00063932
   3         0.00232608
   4        -0.00010854
   5        -0.00004572
   6        -0.00000560
   7         0.00112999
   8         0.00023743
   9         0.00002686
  10        -0.00016423
  11        -0.00020083
  12        -0.00016206
  13        -0.00003667
  14        -0.00000483
  15        -0.00000586
  16         0.50226758
  17         0.01402446
  18        -0.00472904
  19        -0.00011222
  20        -0.00009710
  21        -0.00001237
  22         0.00109830
  23         0.00076446
  24         0.00009657
  25        -0.00098857
  26        -0.00114414
  27        -0.00129174
  28         0.00017471
  29         0.00002167
  30         0.00002219
  31        -0.00002522
  32         0.00021514
  33        -0.00008335
  34        -0.00007380
  35         0.49285774
  36         0.01366782
  37        -0.00226981
  38         0.00001101
  39         0.00003867
  40         0.00000506
  41         0.00005850
  42        -0.00052919
  43        -0.00007009
  44        -0.00115629
  45        -0.00127685
  46        -0.00133320
  47         0.00015808
  48         0.00002005
  49         0.00000809
  50        -0.00016080
  51         0.00062188
  52         0.49268481
  53         0.01366275
  54        -0.00227369
  55        -0.00001080
  56        -0.00003883
  57        -0.00000508
  58        -0.00006150
  59         0.00053018
  60         0.00007022
  61        -0.00115520
  62        -0.00127593
  63        -0.00133262
  64         0.00015780
  65         0.00002001
  66         0.00000814
  67        -0.00019105
  68         0.00039439
  69         0.50072660
  70         0.01398131
  71        -0.00470933
  72         0.00011199
  73         0.00009676
  74         0.00001232
  75        -0.00109894
  76        -0.00076220
  77        -0.00009616
  78        -0.00098598
  79        -0.00114111
  80        -0.00128801
  81         0.00017440
  82         0.00002160
  83         0.00002205
  84        -0.00019095
  85         0.00039428
  86         0.03070632
  87         0.00063715
  88         0.00232059
  89         0.00010821
  90         0.00004556
  91         0.00000558
  92        -0.00112747
  93        -0.00023720
  94        -0.00002677
  95        -0.00016356
  96        -0.00020017
  97        -0.00016165
  98        -0.00003654
  99        -0.00000481
 100        -0.00000582
 101        -0.00016059
 102         0.00061936
 103        -0.00008318
 104        -0.00007333
 105        -0.00002519
 106         0.00021480
Sym=     2a  
Ene=   -11.2280
Spin= Alpha
Occup=    1.00000
   1        -0.04303505
   2        -0.00101464
   3        -0.00238049
   4         0.00014313
   5         0.00006863
   6         0.00000849
   7        -0.00109411
   8        -0.00011265
   9        -0.00001053
  10         0.00028929
  11         0.00029187
  12         0.00018826
  13         0.00004816
  14         0.00000589
  15         0.00001588
  16        -0.68236269
  17        -0.01914227
  18         0.00837581
  19         0.00010792
  20         0.00013876
  21         0.00001789
  22         0.00016506
  23        -0.00093514
  24        -0.00012412
  25         0.00120289
  26         0.00137974
  27         0.00167432
  28        -0.00016341
  29        -0.00001939
  30        -0.00004505
  31         0.00001237
  32        -0.00015604
  33         0.00007119
  34         0.00020324
  35        -0.16597716
  36        -0.00477446
  37        -0.00007584
  38        -0.00012799
  39         0.00003234
  40         0.00000479
  41         0.00152976
  42        -0.00025240
  43        -0.00003944
  44         0.00058884
  45         0.00054994
  46         0.00045953
  47        -0.00014481
  48        -0.00001972
  49         0.00001463
  50         0.00009928
  51        -0.00111417
  52         0.16788440
  53         0.00482744
  54         0.00006093
  55        -0.00012795
  56         0.00003214
  57         0.00000475
  58         0.00152729
  59        -0.00025024
  60        -0.00003913
  61        -0.00059266
  62        -0.00055437
  63        -0.00046443
  64         0.00014507
  65         0.00001975
  66        -0.00001455
  67         0.00004887
  68        -0.00023338
  69         0.68264825
  70         0.01915024
  71        -0.00837294
  72         0.00010809
  73         0.00013874
  74         0.00001787
  75         0.00016168
  76        -0.00093548
  77        -0.00012411
  78        -0.00120406
  79        -0.00138095
  80        -0.00167530
  81         0.00016381
  82         0.00001941
  83         0.00004497
  84        -0.00004936
  85         0.00023579
  86         0.04305652
  87         0.00101483
  88         0.00238252
  89         0.00014323
  90         0.00006862
  91         0.00000848
  92        -0.00109542
  93        -0.00011277
  94        -0.00001048
  95        -0.00028920
  96        -0.00029194
  97        -0.00018844
  98        -0.00004817
  99        -0.00000588
 100        -0.00001585
 101        -0.00009958
 102         0.00111371
 103        -0.00007133
 104        -0.00020328
 105        -0.00001239
 106         0.00015657
Sym=     2a  
Ene=   -11.2280
Spin= Beta
Occup=    1.00000
   1        -0.04303505
   2        -0.00101464
   3        -0.00238049
   4         0.00014313
   5         0.00006863
   6         0.00000849
   7        -0.00109411
   8        -0.00011265
   9        -0.00001053
  10         0.00028929
  11         0.00029187
  12         0.00018826
  13         0.00004816
  14         0.00000589
  15         0.00001588
  16        -0.68236269
  17        -0.01914227
  18         0.00837581
  19         0.00010792
  20         0.00013876
  21         0.00001789
  22         0.00016506
  23        -0.00093514
  24        -0.00012412
  25         0.00120289
  26         0.00137974
  27         0.00167432
  28        -0.00016341
  29        -0.00001939
  30        -0.00004505
  31         0.00001237
  32        -0.00015604
  33         0.00007119
  34         0.00020324
  35        -0.16597716
  36        -0.00477446
  37        -0.00007584
  38        -0.00012799
  39         0.00003234
  40         0.00000479
  41         0.00152976
  42        -0.00025240
  43        -0.00003944
  44         0.00058884
  45         0.00054994
  46         0.00045953
  47        -0.00014481
  48        -0.00001972
  49         0.00001463
  50         0.00009928
  51        -0.00111417
  52         0.16788440
  53         0.00482744
  54         0.00006093
  55        -0.00012795
  56         0.00003214
  57         0.00000475
  58         0.00152729
  59        -0.00025024
  60        -0.00003913
  61        -0.00059266
  62        -0.00055437
  63        -0.00046443
  64         0.00014507
  65         0.00001975
  66        -0.00001455
  67         0.00004887
  68        -0.00023338
  69         0.68264825
  70         0.01915024
  71        -0.00837294
  72         0.00010809
  73         0.00013874
  74         0.00001787
  75         0.00016168
  76        -0.00093548
  77        -0.00012411
  78        -0.00120406
  79        -0.00138095
  80        -0.00167530
  81         0.00016381
  82         0.00001941
  83         0.00004497
  84        -0.00004936
  85         0.00023579
  86         0.04305652
  87         0.00101483
  88         0.00238252
  89         0.00014323
  90         0.00006862
  91         0.00000848
  92        -0.00109542
  93        -0.00011277
  94        -0.00001048
  95        -0.00028920
  96        -0.00029194
  97        -0.00018844
  98        -0.00004817
  99        -0.00000588
 100        -0.00001585
 101        -0.00009958
 102         0.00111371
 103        -0.00007133
 104        -0.00020328
 105        -0.00001239
 106         0.00015657
Sym=     3a  
Ene=   -11.2280
Spin= Alpha
Occup=    1.00000
   1        -0.03259033
   2        -0.00085386
   3        -0.00183017
   4         0.00008546
   5         0.00006630
   6         0.00000841
   7        -0.00070301
   8        -0.00026012
   9        -0.00003156
  10         0.00027132
  11         0.00023656
  12         0.00011708
  13         0.00003464
  14         0.00000386
  15         0.00001840
  16        -0.49144140
  17        -0.01376428
  18         0.00801302
  19         0.00005128
  20         0.00014531
  21         0.00001898
  22         0.00058551
  23        -0.00081568
  24        -0.00011002
  25         0.00059865
  26         0.00078791
  27         0.00113528
  28         0.00000319
  29         0.00000291
  30        -0.00005391
  31         0.00002228
  32         0.00003197
  33         0.00002590
  34         0.00005692
  35         0.50255469
  36         0.01399663
  37        -0.00603589
  38        -0.00003929
  39         0.00007215
  40         0.00000967
  41         0.00142973
  42        -0.00059930
  43        -0.00008480
  44        -0.00078819
  45        -0.00099301
  46        -0.00120812
  47        -0.00005033
  48        -0.00000860
  49         0.00003358
  50         0.00002825
  51        -0.00109706
  52         0.50239951
  53         0.01399211
  54        -0.00603843
  55         0.00003945
  56        -0.00007226
  57        -0.00000970
  58        -0.00143202
  59         0.00060001
  60         0.00008494
  61        -0.00078734
  62        -0.00099229
  63        -0.00120762
  64        -0.00005055
  65        -0.00000863
  66         0.00003361
  67        -0.00004621
  68         0.00094463
  69        -0.49259594
  70        -0.01379670
  71         0.00802775
  72        -0.00005146
  73        -0.00014557
  74        -0.00001900
  75        -0.00058600
  76         0.00081738
  77         0.00011022
  78         0.00060061
  79         0.00079020
  80         0.00113812
  81         0.00000293
  82         0.00000291
  83        -0.00005397
  84        -0.00004614
  85         0.00094448
  86        -0.03266955
  87        -0.00085576
  88        -0.00183420
  89        -0.00008570
  90        -0.00006642
  91        -0.00000842
  92         0.00070491
  93         0.00026029
  94         0.00003151
  95         0.00027183
  96         0.00023709
  97         0.00011741
  98         0.00003472
  99         0.00000385
 100         0.00001841
 101         0.00002841
 102        -0.00109895
 103         0.00002602
 104         0.00005725
 105         0.00002229
 106         0.00003169
Sym=     3a  
Ene=   -11.2280
Spin= Beta
Occup=    1.00000
   1        -0.03259033
   2        -0.00085386
   3        -0.00183017
   4         0.00008546
   5         0.00006630
   6         0.00000841
   7        -0.00070301
   8        -0.00026012
   9        -0.00003156
  10         0.00027132
  11         0.00023656
  12         0.00011708
  13         0.00003464
  14         0.00000386
  15         0.00001840
  16        -0.49144140
  17        -0.01376428
  18         0.00801302
  19         0.00005128
  20         0.00014531
  21         0.00001898
  22         0.00058551
  23        -0.00081568
  24        -0.00011002
  25         0.00059865
  26         0.00078791
  27         0.00113528
  28         0.00000319
  29         0.00000291
  30        -0.00005391
  31         0.00002228
  32         0.00003197
  33         0.00002590
  34         0.00005692
  35         0.50255469
  36         0.01399663
  37        -0.00603589
  38        -0.00003929
  39         0.00007215
  40         0.00000967
  41         0.00142973
  42        -0.00059930
  43        -0.00008480
  44        -0.00078819
  45        -0.00099301
  46        -0.00120812
  47        -0.00005033
  48        -0.00000860
  49         0.00003358
  50         0.00002825
  51        -0.00109706
  52         0.50239951
  53         0.01399211
  54        -0.00603843
  55         0.00003945
  56        -0.00007226
  57        -0.00000970
  58        -0.00143202
  59         0.00060001
  60         0.00008494
  61        -0.00078734
  62        -0.00099229
  63        -0.00120762
  64        -0.00005055
  65        -0.00000863
  66         0.00003361
  67        -0.00004621
  68         0.00094463
  69        -0.49259594
  70        -0.01379670
  71         0.00802775
  72        -0.00005146
  73        -0.00014557
  74        -0.00001900
  75        -0.00058600
  76         0.00081738
  77         0.00011022
  78         0.00060061
  79         0.00079020
  80         0.00113812
  81         0.00000293
  82         0.00000291
  83        -0.00005397
  84        -0.00004614
  85         0.00094448
  86        -0.03266955
  87        -0.00085576
  88        -0.00183420
  89        -0.00008570
  90        -0.00006642
  91        -0.00000842
  92         0.00070491
  93         0.00026029
  94         0.00003151
  95         0.00027183
  96         0.00023709
  97         0.00011741
  98         0.00003472
  99         0.00000385
 100         0.00001841
 101         0.00002841
 102        -0.00109895
 103         0.00002602
 104         0.00005725
 105         0.00002229
 106         0.00003169
Sym=     4a  
Ene=   -11.2270
Spin= Alpha
Occup=    1.00000
   1         0.01280661
   2         0.00038010
   3         0.00077896
   4        -0.00002482
   5        -0.00003536
   6        -0.00000457
   7         0.00046193
   8        -0.00004346
   9        -0.00000755
  10        -0.00012731
  11        -0.00012645
  12        -0.00002634
  13        -0.00003965
  14        -0.00000476
  15        -0.00001537
  16         0.16663130
  17         0.00455726
  18        -0.00486496
  19        -0.00000171
  20        -0.00012488
  21        -0.00001647
  22        -0.00104007
  23         0.00077852
  24         0.00010692
  25         0.00015090
  26        -0.00006308
  27        -0.00032386
  28        -0.00011494
  29        -0.00001737
  30         0.00004093
  31         0.00000497
  32         0.00005210
  33        -0.00002963
  34         0.00000075
  35        -0.68427471
  36        -0.01936426
  37         0.01330681
  38        -0.00025603
  39        -0.00029427
  40        -0.00003781
  41         0.00128204
  42         0.00157965
  43         0.00020337
  44         0.00077000
  45         0.00101997
  46         0.00156313
  47        -0.00012571
  48        -0.00001289
  49        -0.00008374
  50         0.00003159
  51         0.00031930
  52         0.68404788
  53         0.01935794
  54        -0.01330510
  55        -0.00025603
  56        -0.00029425
  57        -0.00003782
  58         0.00128232
  59         0.00157939
  60         0.00020336
  61        -0.00076953
  62        -0.00101944
  63        -0.00156255
  64         0.00012566
  65         0.00001288
  66         0.00008373
  67         0.00004030
  68        -0.00144199
  69        -0.16668577
  70        -0.00455879
  71         0.00486490
  72        -0.00000173
  73        -0.00012489
  74        -0.00001648
  75        -0.00103966
  76         0.00077859
  77         0.00010693
  78        -0.00015073
  79         0.00006327
  80         0.00032403
  81         0.00011488
  82         0.00001739
  83        -0.00004093
  84        -0.00004023
  85         0.00144170
  86        -0.01281183
  87        -0.00038019
  88        -0.00077929
  89        -0.00002484
  90        -0.00003536
  91        -0.00000456
  92         0.00046214
  93        -0.00004343
  94        -0.00000760
  95         0.00012732
  96         0.00012648
  97         0.00002637
  98         0.00003966
  99         0.00000476
 100         0.00001536
 101        -0.00003155
 102        -0.00031929
 103         0.00002965
 104        -0.00000074
 105        -0.00000497
 106        -0.00005217
Sym=     4a  
Ene=   -11.2270
Spin= Beta
Occup=    1.00000
   1         0.01280661
   2         0.00038010
   3         0.00077896
   4        -0.00002482
   5        -0.00003536
   6        -0.00000457
   7         0.00046193
   8        -0.00004346
   9        -0.00000755
  10        -0.00012731
  11        -0.00012645
  12        -0.00002634
  13        -0.00003965
  14        -0.00000476
  15        -0.00001537
  16         0.16663130
  17         0.00455726
  18        -0.00486496
  19        -0.00000171
  20        -0.00012488
  21        -0.00001647
  22        -0.00104007
  23         0.00077852
  24         0.00010692
  25         0.00015090
  26        -0.00006308
  27        -0.00032386
  28        -0.00011494
  29        -0.00001737
  30         0.00004093
  31         0.00000497
  32         0.00005210
  33        -0.00002963
  34         0.00000075
  35        -0.68427471
  36        -0.01936426
  37         0.01330681
  38        -0.00025603
  39        -0.00029427
  40        -0.00003781
  41         0.00128204
  42         0.00157965
  43         0.00020337
  44         0.00077000
  45         0.00101997
  46         0.00156313
  47        -0.00012571
  48        -0.00001289
  49        -0.00008374
  50         0.00003159
  51         0.00031930
  52         0.68404788
  53         0.01935794
  54        -0.01330510
  55        -0.00025603
  56        -0.00029425
  57        -0.00003782
  58         0.00128232
  59         0.00157939
  60         0.00020336
  61        -0.00076953
  62        -0.00101944
  63        -0.00156255
  64         0.00012566
  65         0.00001288
  66         0.00008373
  67         0.00004030
  68        -0.00144199
  69        -0.16668577
  70        -0.00455879
  71         0.00486490
  72        -0.00000173
  73        -0.00012489
  74        -0.00001648
  75        -0.00103966
  76         0.00077859
  77         0.00010693
  78        -0.00015073
  79         0.00006327
  80         0.00032403
  81         0.00011488
  82         0.00001739
  83        -0.00004093
  84        -0.00004023
  85         0.00144170
  86        -0.01281183
  87        -0.00038019
  88        -0.00077929
  89        -0.00002484
  90        -0.00003536
  91        -0.00000456
  92         0.00046214
  93        -0.00004343
  94        -0.00000760
  95         0.00012732
  96         0.00012648
  97         0.00002637
  98         0.00003966
  99         0.00000476
 100         0.00001536
 101        -0.00003155
 102        -0.00031929
 103         0.00002965
 104        -0.00000074
 105        -0.00000497
 106        -0.00005217
Sym=     5a  
Ene=   -11.2160
Spin= Alpha
Occup=    1.00000
   1         0.06926317
   2         0.00196205
   3        -0.00091143
   4         0.00002610
   5         0.00000499
   6         0.00000055
   7        -0.00014810
   8        -0.00003304
   9        -0.00000378
  10        -0.00012738
  11        -0.00014192
  12        -0.00017084
  13         0.00001141
  14         0.00000130
  15         0.00000444
  16        -0.00449927
  17        -0.00014278
  18         0.00036553
  19         0.00002798
  20         0.00000654
  21         0.00000075
  22        -0.00017584
  23         0.00002217
  24         0.00000363
  25        -0.00000912
  26        -0.00001588
  27         0.00000650
  28         0.00000102
  29         0.00000021
  30        -0.00000348
  31        -0.00001015
  32         0.00011003
  33         0.00000164
  34         0.00013916
  35         0.00054948
  36         0.00005031
  37        -0.00090150
  38        -0.00000972
  39         0.00001463
  40         0.00000197
  41        -0.00059091
  42        -0.00022161
  43        -0.00002690
  44        -0.00001276
  45         0.00002212
  46         0.00000602
  47         0.00000365
  48         0.00000057
  49         0.00000248
  50         0.00000165
  51        -0.00009038
  52        -0.00285190
  53         0.00003086
  54         0.00085385
  55         0.00003344
  56         0.00005832
  57         0.00000756
  58        -0.00059460
  59        -0.00059324
  60        -0.00007592
  61        -0.00013624
  62        -0.00003689
  63         0.00001340
  64         0.00005730
  65         0.00000826
  66        -0.00000804
  67         0.00001540
  68        -0.00009193
  69         0.06389399
  70         0.00202398
  71        -0.00480723
  72         0.00024737
  73         0.00015182
  74         0.00001904
  75        -0.00146910
  76        -0.00057489
  77        -0.00006995
  78         0.00025477
  79         0.00017600
  80        -0.00004311
  81         0.00002749
  82         0.00000223
  83         0.00003387
  84         0.00004374
  85         0.00024880
  86        -0.99110941
  87        -0.02781744
  88         0.01166906
  89         0.00030778
  90         0.00014633
  91         0.00001808
  92        -0.00094119
  93        -0.00043161
  94        -0.00005319
  95         0.00179393
  96         0.00204364
  97         0.00258788
  98        -0.00021002
  99        -0.00002398
 100        -0.00008353
 101         0.00005103
 102         0.00033648
 103         0.00011131
 104        -0.00203437
 105         0.00013110
 106        -0.00198215
Sym=     5a  
Ene=   -11.2160
Spin= Beta
Occup=    1.00000
   1         0.06926317
   2         0.00196205
   3        -0.00091143
   4         0.00002610
   5         0.00000499
   6         0.00000055