[Molden Format]
[N_Atoms]
                   14
[Atoms] (AU)
C1          1      6         -13.23913777      4.40861767     -0.03165291
C2          2      6         -11.02473780      5.60795125      0.11791891
H3          3      1         -14.98949659      5.46709106      0.11502763
H4          4      1         -13.33107295      2.37593376     -0.29971056
C5          5      6          -8.61261579      4.21599788     -0.07543787
H6          6      1         -11.01368290      7.64390438      0.38671355
C7          7      6          -6.39505997      5.42714225      0.07557015
H8          8      1          -8.64774579      2.17847628     -0.34427031
C9          9      6          -3.98293796      4.03520778     -0.11782442
H10        10      1          -6.35994886      7.46468275      0.34438369
C11        11      6          -1.76855689      5.23456026      0.03153953
H12        12      1          -3.99399286      1.99923575     -0.38646789
H13        13      1          -1.67660281      7.26728196      0.29940821
H14        14      1          -0.01817917      4.17610576     -0.11519770
[Charge] (Mulliken)
 -0.41375299972828206     
 -0.13839578651297479     
  0.17936519978002563     
  0.17822322982151417     
 -0.18990022558349828     
  0.19204822713470382     
 -0.18990174249563196     
  0.19241231502124512     
 -0.13839051717338080     
  0.19241181435207788     
 -0.41375393648940673     
  0.19204840268395906     
  0.17822212842547613     
  0.17936389076397086     
[GTO] (AU)
   1
   s   6
  3.047524880E+03  1.834737132E-03
  4.573695180E+02  1.403732281E-02
  1.039486850E+02  6.884262227E-02
  2.921015530E+01  2.321844432E-01
  9.286662960E+00  4.679413484E-01
  3.163926960E+00  3.623119853E-01
   s   3
  7.868272350E+00 -1.193324198E-01
  1.881288540E+00 -1.608541517E-01
  5.442492580E-01  1.143456438E+00
   s   1
  1.687144782E-01  1.000000000E+00
   p   3
  7.868272350E+00  6.899906659E-02
  1.881288540E+00  3.164239610E-01
  5.442492580E-01  7.443082909E-01
   p   1
  1.687144782E-01  1.000000000E+00
   d   1
  8.000000000E-01  1.000000000E+00
 
   2
   s   6
  3.047524880E+03  1.834737132E-03
  4.573695180E+02  1.403732281E-02
  1.039486850E+02  6.884262227E-02
  2.921015530E+01  2.321844432E-01
  9.286662960E+00  4.679413484E-01
  3.163926960E+00  3.623119853E-01
   s   3
  7.868272350E+00 -1.193324198E-01
  1.881288540E+00 -1.608541517E-01
  5.442492580E-01  1.143456438E+00
   s   1
  1.687144782E-01  1.000000000E+00
   p   3
  7.868272350E+00  6.899906659E-02
  1.881288540E+00  3.164239610E-01
  5.442492580E-01  7.443082909E-01
   p   1
  1.687144782E-01  1.000000000E+00
   d   1
  8.000000000E-01  1.000000000E+00
 
   3
   s   3
  1.873113696E+01  3.349460434E-02
  2.825394365E+00  2.347269535E-01
  6.401216923E-01  8.137573261E-01
   s   1
  1.612777588E-01  1.000000000E+00
 
   4
   s   3
  1.873113696E+01  3.349460434E-02
  2.825394365E+00  2.347269535E-01
  6.401216923E-01  8.137573261E-01
   s   1
  1.612777588E-01  1.000000000E+00
 
   5
   s   6
  3.047524880E+03  1.834737132E-03
  4.573695180E+02  1.403732281E-02
  1.039486850E+02  6.884262227E-02
  2.921015530E+01  2.321844432E-01
  9.286662960E+00  4.679413484E-01
  3.163926960E+00  3.623119853E-01
   s   3
  7.868272350E+00 -1.193324198E-01
  1.881288540E+00 -1.608541517E-01
  5.442492580E-01  1.143456438E+00
   s   1
  1.687144782E-01  1.000000000E+00
   p   3
  7.868272350E+00  6.899906659E-02
  1.881288540E+00  3.164239610E-01
  5.442492580E-01  7.443082909E-01
   p   1
  1.687144782E-01  1.000000000E+00
   d   1
  8.000000000E-01  1.000000000E+00
 
   6
   s   3
  1.873113696E+01  3.349460434E-02
  2.825394365E+00  2.347269535E-01
  6.401216923E-01  8.137573261E-01
   s   1
  1.612777588E-01  1.000000000E+00
 
   7
   s   6
  3.047524880E+03  1.834737132E-03
  4.573695180E+02  1.403732281E-02
  1.039486850E+02  6.884262227E-02
  2.921015530E+01  2.321844432E-01
  9.286662960E+00  4.679413484E-01
  3.163926960E+00  3.623119853E-01
   s   3
  7.868272350E+00 -1.193324198E-01
  1.881288540E+00 -1.608541517E-01
  5.442492580E-01  1.143456438E+00
   s   1
  1.687144782E-01  1.000000000E+00
   p   3
  7.868272350E+00  6.899906659E-02
  1.881288540E+00  3.164239610E-01
  5.442492580E-01  7.443082909E-01
   p   1
  1.687144782E-01  1.000000000E+00
   d   1
  8.000000000E-01  1.000000000E+00
 
   8
   s   3
  1.873113696E+01  3.349460434E-02
  2.825394365E+00  2.347269535E-01
  6.401216923E-01  8.137573261E-01
   s   1
  1.612777588E-01  1.000000000E+00
 
   9
   s   6
  3.047524880E+03  1.834737132E-03
  4.573695180E+02  1.403732281E-02
  1.039486850E+02  6.884262227E-02
  2.921015530E+01  2.321844432E-01
  9.286662960E+00  4.679413484E-01
  3.163926960E+00  3.623119853E-01
   s   3
  7.868272350E+00 -1.193324198E-01
  1.881288540E+00 -1.608541517E-01
  5.442492580E-01  1.143456438E+00
   s   1
  1.687144782E-01  1.000000000E+00
   p   3
  7.868272350E+00  6.899906659E-02
  1.881288540E+00  3.164239610E-01
  5.442492580E-01  7.443082909E-01
   p   1
  1.687144782E-01  1.000000000E+00
   d   1
  8.000000000E-01  1.000000000E+00
 
  10
   s   3
  1.873113696E+01  3.349460434E-02
  2.825394365E+00  2.347269535E-01
  6.401216923E-01  8.137573261E-01
   s   1
  1.612777588E-01  1.000000000E+00
 
  11
   s   6
  3.047524880E+03  1.834737132E-03
  4.573695180E+02  1.403732281E-02
  1.039486850E+02  6.884262227E-02
  2.921015530E+01  2.321844432E-01
  9.286662960E+00  4.679413484E-01
  3.163926960E+00  3.623119853E-01
   s   3
  7.868272350E+00 -1.193324198E-01
  1.881288540E+00 -1.608541517E-01
  5.442492580E-01  1.143456438E+00
   s   1
  1.687144782E-01  1.000000000E+00
   p   3
  7.868272350E+00  6.899906659E-02
  1.881288540E+00  3.164239610E-01
  5.442492580E-01  7.443082909E-01
   p   1
  1.687144782E-01  1.000000000E+00
   d   1
  8.000000000E-01  1.000000000E+00
 
  12
   s   3
  1.873113696E+01  3.349460434E-02
  2.825394365E+00  2.347269535E-01
  6.401216923E-01  8.137573261E-01
   s   1
  1.612777588E-01  1.000000000E+00
 
  13
   s   3
  1.873113696E+01  3.349460434E-02
  2.825394365E+00  2.347269535E-01
  6.401216923E-01  8.137573261E-01
   s   1
  1.612777588E-01  1.000000000E+00
 
  14
   s   3
  1.873113696E+01  3.349460434E-02
  2.825394365E+00  2.347269535E-01
  6.401216923E-01  8.137573261E-01
   s   1
  1.612777588E-01  1.000000000E+00
 
[MO]
Sym=     1a  
Ene=   -11.2370
Spin= Alpha
Occup=    2.00000
   1         0.03846508
   2         0.00080251
   3         0.00251035
   4        -0.00011406
   5        -0.00004110
   6        -0.00000497
   7         0.00126097
   8         0.00023870
   9         0.00002651
  10        -0.00018386
  11        -0.00023960
  12        -0.00016061
  13        -0.00001151
  14        -0.00000141
  15        -0.00001221
  16         0.60764303
  17         0.01675753
  18        -0.00628910
  19         0.00007626
  20        -0.00006231
  21        -0.00000853
  22         0.00072082
  23         0.00071206
  24         0.00009115
  25        -0.00105591
  26        -0.00124018
  27        -0.00149155
  28         0.00015687
  29         0.00001870
  30         0.00003837
  31        -0.00002012
  32         0.00022859
  33        -0.00009529
  34        -0.00008823
  35         0.35816944
  36         0.00978947
  37        -0.00088889
  38        -0.00008174
  39        -0.00000662
  40        -0.00000055
  41         0.00001189
  42        -0.00038202
  43        -0.00005048
  44        -0.00090009
  45        -0.00096069
  46        -0.00096922
  47         0.00019249
  48         0.00002509
  49         0.00000053
  50        -0.00015339
  51         0.00094309
  52         0.35733703
  53         0.00976527
  54        -0.00089799
  55         0.00008237
  56         0.00000595
  57         0.00000046
  58        -0.00002275
  59         0.00038541
  60         0.00005095
  61        -0.00089584
  62        -0.00095712
  63        -0.00096673
  64         0.00019139
  65         0.00002494
  66         0.00000070
  67        -0.00018365
  68         0.00018031
  69         0.60221584
  70         0.01660737
  71        -0.00622071
  72        -0.00007546
  73         0.00006167
  74         0.00000844
  75        -0.00072388
  76        -0.00070494
  77        -0.00009011
  78        -0.00104713
  79        -0.00123000
  80        -0.00147871
  81         0.00015587
  82         0.00001855
  83         0.00003792
  84        -0.00018339
  85         0.00017932
  86         0.03812242
  87         0.00079475
  88         0.00249148
  89         0.00011317
  90         0.00004071
  91         0.00000492
  92        -0.00125197
  93        -0.00023794
  94        -0.00002637
  95        -0.00018192
  96        -0.00023736
  97        -0.00015940
  98        -0.00001140
  99        -0.00000139
 100        -0.00001204
 101        -0.00015261
 102         0.00093386
 103        -0.00009468
 104        -0.00008656
 105        -0.00002005
 106         0.00022734
Sym=     2a  
Ene=   -11.2370
Spin= Alpha
Occup=    2.00000
   1        -0.04434089
   2        -0.00100382
   3        -0.00238897
   4         0.00011307
   5         0.00004845
   6         0.00000595
   7        -0.00114101
   8        -0.00010003
   9        -0.00000868
  10         0.00024455
  11         0.00028438
  12         0.00015622
  13         0.00001163
  14         0.00000112
  15         0.00001984
  16        -0.68912737
  17        -0.01907845
  18         0.00861904
  19        -0.00010014
  20         0.00007888
  21         0.00001081
  22         0.00036233
  23        -0.00089419
  24        -0.00011949
  25         0.00112803
  26         0.00130093
  27         0.00163617
  28        -0.00013304
  29        -0.00001521
  30        -0.00005148
  31         0.00000852
  32        -0.00016051
  33         0.00007722
  34         0.00021136
  35        -0.12370433
  36        -0.00357791
  37        -0.00080903
  38        -0.00008145
  39         0.00007947
  40         0.00001082
  41         0.00142571
  42        -0.00039106
  43        -0.00005733
  44         0.00056117
  45         0.00048005
  46         0.00035607
  47        -0.00014190
  48        -0.00001969
  49         0.00001982
  50         0.00010046
  51        -0.00117025
  52         0.12721304
  53         0.00367383
  54         0.00079469
  55        -0.00008059
  56         0.00007948
  57         0.00001081
  58         0.00142397
  59        -0.00038754
  60        -0.00005683
  61        -0.00056928
  62        -0.00048895
  63        -0.00036531
  64         0.00014338
  65         0.00001988
  66        -0.00001977
  67         0.00003261
  68        -0.00016608
  69         0.69343147
  70         0.01919722
  71        -0.00866035
  72        -0.00010061
  73         0.00007927
  74         0.00001087
  75         0.00035585
  76        -0.00089915
  77        -0.00012009
  78        -0.00113591
  79        -0.00131007
  80        -0.00164689
  81         0.00013436
  82         0.00001533
  83         0.00005168
  84        -0.00003414
  85         0.00016880
  86         0.04461897
  87         0.00100947
  88         0.00240703
  89         0.00011392
  90         0.00004871
  91         0.00000597
  92        -0.00115041
  93        -0.00010156
  94        -0.00000878
  95        -0.00024574
  96        -0.00028606
  97        -0.00015743
  98        -0.00001170
  99        -0.00000112
 100        -0.00001990
 101        -0.00010166
 102         0.00117646
 103        -0.00007797
 104        -0.00021203
 105        -0.00000865
 106         0.00016246
Sym=     3a  
Ene=   -11.2370
Spin= Alpha
Occup=    2.00000
   1        -0.02464661
   2        -0.00067084
   3        -0.00121838
   4         0.00003433
   5         0.00005104
   6         0.00000660
   7        -0.00035916
   8        -0.00029634
   9        -0.00003771
  10         0.00019935
  11         0.00017337
  12         0.00005217
  13         0.00000552
  14         0.00000004
  15         0.00001878
  16        -0.35681114
  17        -0.00983760
  18         0.00644321
  19        -0.00009136
  20         0.00009114
  21         0.00001239
  22         0.00071120
  23        -0.00050104
  24        -0.00006897
  25         0.00028744
  26         0.00044469
  27         0.00076786
  28         0.00007774
  29         0.00001249
  30        -0.00005046
  31         0.00002483
  32         0.00013098
  33        -0.00000703
  34        -0.00000400
  35         0.60609831
  36         0.01659482
  37        -0.00627126
  38        -0.00019251
  39         0.00003595
  40         0.00000551
  41         0.00137653
  42        -0.00044966
  43        -0.00006484
  44        -0.00093140
  45        -0.00118925
  46        -0.00142231
  47        -0.00001431
  48        -0.00000417
  49         0.00003621
  50        -0.00000339
  51        -0.00095030
  52         0.60609886
  53         0.01659469
  54        -0.00627510
  55         0.00019260
  56        -0.00003609
  57        -0.00000554
  58        -0.00137791
  59         0.00045047
  60         0.00006498
  61        -0.00093090
  62        -0.00118890
  63        -0.00142222
  64        -0.00001447
  65        -0.00000420
  66         0.00003625
  67        -0.00008413
  68         0.00112001
  69        -0.35765206
  70        -0.00986089
  71         0.00645433
  72         0.00009149
  73        -0.00009127
  74        -0.00001241
  75        -0.00071188
  76         0.00050223
  77         0.00006914
  78         0.00028872
  79         0.00044622
  80         0.00076985
  81         0.00007761
  82         0.00001251
  83        -0.00005052
  84        -0.00008410
  85         0.00112011
  86        -0.02470550
  87        -0.00067220
  88        -0.00122129
  89        -0.00003447
  90        -0.00005111
  91        -0.00000660
  92         0.00036058
  93         0.00029645
  94         0.00003767
  95         0.00019967
  96         0.00017374
  97         0.00005237
  98         0.00000553
  99         0.00000004
 100         0.00001880
 101        -0.00000328
 102        -0.00095174
 103        -0.00000693
 104        -0.00000376
 105         0.00002484
 106         0.00013077
Sym=     4a  
Ene=   -11.2350
Spin= Alpha
Occup=    2.00000
   1         0.01006360
   2         0.00031615
   3         0.00055870
   4        -0.00000901
   5        -0.00003109
   6        -0.00000407
   7         0.00034840
   8        -0.00004060
   9        -0.00000673
  10        -0.00009994
  11        -0.00010584
  12        -0.00000461
  13        -0.00003162
  14        -0.00000373
  15        -0.00001558
  16         0.12526103
  17         0.00333742
  18        -0.00435457
  19         0.00005348
  20        -0.00010983
  21        -0.00001471
  22        -0.00109751
  23         0.00066803
  24         0.00009256
  25         0.00025640
  26         0.00004105
  27        -0.00020438
  28        -0.00014439
  29        -0.00002120
  30         0.00003867
  31         0.00000520
  32         0.00002483
  33        -0.00001888
  34         0.00002011
  35        -0.69311227
  36        -0.01940336
  37         0.01341932
  38        -0.00001115
  39        -0.00020817
  40        -0.00002743
  41         0.00132231
  42         0.00158369
  43         0.00020374
  44         0.00078634
  45         0.00097854
  46         0.00155904
  47        -0.00006464
  48        -0.00000492
  49        -0.00008979
  50         0.00004353
  51         0.00027340
  52         0.69290631
  53         0.01939770
  54        -0.01341778
  55        -0.00001121
  56        -0.00020817
  57        -0.00002743
  58         0.00132262
  59         0.00158352
  60         0.00020375
  61        -0.00078593
  62        -0.00097809
  63        -0.00155852
  64         0.00006460
  65         0.00000491
  66         0.00008977
  67         0.00005289
  68        -0.00147553
  69        -0.12531329
  70        -0.00333888
  71         0.00435453
  72         0.00005348
  73        -0.00010983
  74        -0.00001471
  75        -0.00109722
  76         0.00066806
  77         0.00009258
  78        -0.00025624
  79        -0.00004088
  80         0.00020454
  81         0.00014433
  82         0.00002121
  83        -0.00003867
  84        -0.00005283
  85         0.00147523
  86        -0.01006818
  87        -0.00031622
  88        -0.00055895
  89        -0.00000903
  90        -0.00003109
  91        -0.00000406
  92         0.00034859
  93        -0.00004061
  94        -0.00000678
  95         0.00009994
  96         0.00010586
  97         0.00000464
  98         0.00003162
  99         0.00000372
 100         0.00001556
 101        -0.00004349
 102        -0.00027340
 103         0.00001891
 104        -0.00002009
 105        -0.00000520
 106        -0.00002490
Sym=     5a  
Ene=   -11.2240
Spin= Alpha
Occup=    2.00000
   1         0.57315892
   2         0.01584359
   3        -0.00689717
   4         0.00002465
   5         0.00000421
   6         0.00000045
   7        -0.00048977
   8        -0.00020655
   9        -0.00002531
  10        -0.00098676
  11        -0.00110749
  12        -0.00144940
  13         0.00010412
  14         0.00001160
  15         0.00005263
  16        -0.03751188
  17        -0.00122143
  18         0.00309218
  19         0.00009704
  20         0.00007716
  21         0.00000980
  22        -0.00081865
  23        -0.00058019
  24        -0.00007337
  25        -0.00011100
  26        -0.00009752
  27         0.00003719
  28         0.00001304
  29         0.00000241
  30        -0.00002096
  31        -0.00008303
  32         0.00119106
  33        -0.00007883
  34         0.00123628
  35         0.00141234
  36        -0.00004776
  37         0.00003305
  38         0.00001918
  39         0.00002726
  40         0.00000352
  41         0.00030500
  42        -0.00027199
  43        -0.00003711
  44         0.00009687
  45         0.00000539
  46        -0.00000964
  47        -0.00003677
  48        -0.00000534
  49         0.00000248
  50        -0.00002479
  51        -0.00009857
  52         0.00208879
  53        -0.00004268
  54        -0.00036651
  55        -0.00002444
  56        -0.00004209
  57        -0.00000546
  58        -0.00007599
  59         0.00043669
  60         0.00005795
  61         0.00012415
  62         0.00001912
  63        -0.00000903
  64        -0.00004804
  65        -0.00000696
  66         0.00000456
  67        -0.00004187
  68        -0.00009281
  69        -0.05313715
  70        -0.00172622
  71         0.00432075
  72        -0.00013988
  73        -0.00010594
  74        -0.00001342
  75         0.00120236
  76         0.00074979
  77         0.00009410
  78        -0.00015414
  79        -0.00013972
  80         0.00005567
  81         0.00001990
  82         0.00000362
  83        -0.00003039
  84        -0.00004415
  85        -0.00016247
  86         0.81152551
  87         0.02244161
  88        -0.00978548
  89        -0.00003972
  90        -0.00000412
  91        -0.00000039
  92         0.00072479
  93         0.00029555
  94         0.00003610
  95        -0.00139716
  96        -0.00156782
  97        -0.00204670
  98         0.00014614
  99         0.00001623
 100         0.00007366
 101        -0.00003402
 102        -0.00018344
 103        -0.00010731
 104         0.00174352
 105        -0.00011821
 106         0.00167143
Sym=     6a  
Ene=   -11.2240
Spin= Alpha
Occup=    2.00000
   1        -0.81152747
   2        -0.02245943
   3         0.00982493
   4        -0.00004929
   5        -0.00000043
   6         0.00000015
   7         0.00078712
   8         0.00030169
   9         0.00003668
  10         0.00139721
  11         0.00156730
  12         0.00203575
  13        -0.00014351
  14        -0.00001599
  15        -0.00007210
  16         0.05315810
  17         0.00171903
  18        -0.00420600
  19        -0.00014483
  20        -0.00009933
  21        -0.00001254
  22         0.00128840
  23         0.00060702
  24         0.00007504
  25         0.00014820
  26         0.00014307
  27        -0.00006158
  28        -0.00002274
  29        -0.00000398
  30         0.00003185
  31         0.00011951
  32        -0.00164166
  33         0.00009877
  34        -0.00172981
  35        -0.00226526
  36        -0.00000697
  37         0.00118915
  38        -0.00001905
  39        -0.00004905
  40        -0.00000640
  41         0.00063237
  42         0.00053938
  43         0.00006868
  44        -0.00009822
  45        -0.00004198
  46        -0.00000015
  47         0.00004003
  48         0.00000574
  49        -0.00000666
  50         0.00003189
  51         0.00027074
  52         0.00166276
  53         0.00002254
  54        -0.00113175
  55        -0.00001154
  56        -0.00003711
  57        -0.00000485
  58         0.00069797
  59         0.00041737
  60         0.00005229
  61         0.00006018
  62         0.00003776
  63         0.00000336
  64        -0.00002543
  65        -0.00000362
  66         0.00000544
  67         0.00001405
  68         0.00022433
  69        -0.03756164
  70        -0.00121186
  71         0.00293001
  72        -0.00010404
  73        -0.00006782
  74        -0.00000853
  75         0.00094051
  76         0.00037808
  77         0.00004611
  78        -0.00010253
  79        -0.00010221
  80         0.00004562
  81         0.00001708
  82         0.00000295
  83        -0.00002300
  84         0.00000076
  85        -0.00018037
  86         0.57316040
  87         0.01586882
  88        -0.00695313
  89        -0.00003822
  90         0.00000099
  91         0.00000028
  92         0.00057804
  93         0.00021527
  94         0.00002609
  95        -0.00098682
  96        -0.00110676
  97        -0.00143393
  98         0.00010045
  99         0.00001115
 100         0.00005032
 101        -0.00002177
 102        -0.00022221
 103        -0.00006672
 104         0.00121683
 105        -0.00008486
 106         0.00114889
Sym=     7a  
Ene=    -1.1027
Spin= Alpha
Occup=    2.00000
   1        -0.05605052
   2         0.10524547
   3         0.08523239
   4         0.04770593
   5         0.01885331
   6         0.00229983
   7         0.00748165
   8         0.00390261
   9         0.00048556
  10         0.00607785
  11         0.00168580
  12        -0.00449761
  13         0.00286846
  14         0.00032984
  15         0.00094776
  16        -0.09107984
  17         0.17496762
  18         0.10823822
  19         0.01654919
  20        -0.03579998
  21        -0.00479273
  22         0.01198025
  23         0.00605640
  24         0.00075202
  25         0.01015218
  26         0.00438241
  27        -0.00766235
  28        -0.00202887
  29        -0.00035051
  30         0.00187743
  31         0.02342818
  32         0.00210207
  33         0.02716186
  34         0.00441931
  35        -0.12009617
  36         0.22903423
  37         0.16031853
  38         0.03083248
  39         0.04568153
  40         0.00590593
  41        -0.00295158
  42        -0.00261872
  43        -0.00033421
  44         0.01217236
  45         0.00515120
  46        -0.00978203
  47         0.00157806
  48         0.00010589
  49         0.00231005
  50         0.04394005
  51         0.00454036
  52        -0.12009754
  53         0.22903684
  54         0.16031983
  55        -0.03082946
  56        -0.04568285
  57        -0.00590754
  58         0.00295262
  59         0.00261938
  60         0.00033383
  61         0.01217269
  62         0.00515118
  63        -0.00978217
  64         0.00157779
  65         0.00010563
  66         0.00231009
  67         0.05795688
  68         0.00583262
  69        -0.09108481
  70         0.17497696
  71         0.10824337
  72        -0.01654707
  73         0.03580224
  74         0.00479097
  75        -0.01198065
  76        -0.00605752
  77        -0.00075144
  78         0.01015251
  79         0.00438275
  80        -0.00766292
  81        -0.00202852
  82        -0.00035143
  83         0.00187659
  84         0.05795666
  85         0.00583242
  86        -0.05605457
  87         0.10525295
  88         0.08523850
  89        -0.04770979
  90        -0.01885575
  91        -0.00229652
  92        -0.00748212
  93        -0.00390276
  94        -0.00048490
  95         0.00607825
  96         0.00168594
  97        -0.00449808
  98         0.00286889
  99         0.00032894
 100         0.00094709
 101         0.04394231
 102         0.00454016
 103         0.02716316
 104         0.00441932
 105         0.02342955
 106         0.00210222
Sym=     8a  
Ene=    -1.0506
Spin= Alpha
Occup=    2.00000
   1         0.09981285
   2        -0.18798411
   3        -0.15057953
   4        -0.06849435
   5        -0.03282320
   6        -0.00406171
   7        -0.00892617
   8        -0.00184177
   9        -0.00020758
  10        -0.00971457
  11        -0.00445167
  12         0.00799282
  13        -0.00398454
  14        -0.00044408
  15        -0.00191476
  16         0.11466216
  17        -0.22044918
  18        -0.15497321
  19         0.04294343
  20         0.04293408
  21         0.00549840
  22        -0.00090521
  23        -0.00787637
  24        -0.00103643
  25        -0.00892821
  26        -0.00562604
  27         0.00889197
  28        -0.00305159
  29        -0.00032015
  30        -0.00224033
  31        -0.04896667
  32        -0.00891128
  33        -0.05101948
  34        -0.00811537
  35         0.04096056
  36        -0.07922635
  37        -0.04328311
  38         0.07530548
  39        -0.01747540
  40        -0.00260706
  41         0.02497171
  42         0.00895090
  43         0.00108223
  44        -0.00577567
  45        -0.00343458
  46         0.00381568
  47         0.00602083
  48         0.00083946
  49        -0.00114960
  50        -0.05777977
  51        -0.00532014
  52        -0.04095300
  53         0.07921190
  54         0.04327316
  55         0.07531037
  56        -0.01747280
  57        -0.00260791
  58         0.02497316
  59         0.00895036
  60         0.00108121
  61         0.00577528
  62         0.00343404
  63        -0.00381507
  64        -0.00602119
  65        -0.00083982
  66         0.00114951
  67        -0.02080401
  68        -0.00082107
  69        -0.11466129
  70         0.22044728
  71         0.15496977
  72         0.04294887
  73         0.04293482
  74         0.00549305
  75        -0.00090432
  76        -0.00787766
  77        -0.00103606
  78         0.00892773
  79         0.00562615
  80        -0.00889212
  81         0.00305223
  82         0.00031880
  83         0.00223891
  84         0.02079962
  85         0.00082062
  86        -0.09981387
  87         0.18798573
  88         0.15058125
  89        -0.06849598
  90        -0.03282545
  91        -0.00405649
  92        -0.00892634
  93        -0.00184151
  94        -0.00020716
  95         0.00971467
  96         0.00445178
  97        -0.00799319
  98         0.00398502
  99         0.00044255
 100         0.00191341
 101         0.05777899
 102         0.00531946
 103         0.05101877
 104         0.00811489
 105         0.04896651
 106         0.00891131
Sym=     9a  
Ene=    -0.9793
Spin= Alpha
Occup=    2.00000
   1        -0.10580475
   2         0.19979618
   3         0.16975968
   4         0.04253148
   5         0.03160704
   6         0.00400399
   7         0.00585697
   8        -0.00390966
   9        -0.00053969
  10         0.00889367
  11         0.00682936
  12        -0.00862784
  13         0.00246045
  14         0.00024348
  15         0.00238853
  16        -0.05835270
  17         0.11336210
  18         0.07226677
  19        -0.12862220
  20        -0.01959827
  21        -0.00207713
  22        -0.03046860
  23         0.01023262
  24         0.00147208
  25        -0.00040796
  26         0.00238124
  27        -0.00351430
  28         0.00999824
  29         0.00130552
  30         0.00087376
  31         0.06530096
  32         0.01886817
  33         0.05945472
  34         0.01000862
  35         0.09245424
  36        -0.17853334
  37        -0.13094442
  38        -0.10538713
  39        -0.03186371
  40        -0.00378509
  41        -0.03176034
  42         0.01486237
  43         0.00208863
  44        -0.00281184
  45        -0.00528547
  46         0.00641721
  47        -0.00857321
  48        -0.00108808
  49        -0.00178003
  50         0.03107469
  51         0.00292799
  52         0.09245533
  53        -0.17853550
  54        -0.13094576
  55         0.10538481
  56         0.03186532
  57         0.00378464
  58         0.03175976
  59        -0.01486218
  60        -0.00208898
  61        -0.00281192
  62        -0.00528558
  63         0.00641733
  64        -0.00857294
  65        -0.00108817
  66        -0.00177990
  67        -0.04952420
  68        -0.00316540
  69        -0.05834993
  70         0.11335655
  71         0.07226140
  72         0.12862274
  73         0.01959905
  74         0.00206908
  75         0.03046838
  76        -0.01023260
  77        -0.00147289
  78        -0.00040835
  79         0.00238120
  80        -0.00351429
  81         0.00999827
  82         0.00130451
  83         0.00087269
  84        -0.04952420
  85        -0.00316559
  86        -0.10580167
  87         0.19979000
  88         0.16975463
  89        -0.04253155
  90        -0.03160805
  91        -0.00400034
  92        -0.00585681
  93         0.00390963
  94         0.00053941
  95         0.00889349
  96         0.00682927
  97        -0.00862792
  98         0.00246092
  99         0.00024200
 100         0.00238690
 101         0.03107278
 102         0.00292750
 103         0.05945167
 104         0.01000792
 105         0.06529823
 106         0.01886741
Sym=    10a  
Ene=    -0.8302
Spin= Alpha
Occup=    2.00000
   1         0.09416959
   2        -0.18142987
   3        -0.17114805
   4         0.06240218
   5         0.00684466
   6         0.00065768