[Molden Format]
[N_Atoms]
                    6
[Atoms] (AU)
C1          1      6          -1.24432229      0.00000000      0.00000000
C2          2      6           1.24432229      0.00000000      0.00000000
H3          3      1          -2.31622597      1.72784085      0.00000000
H4          4      1          -2.31622597     -1.72784085      0.00000000
H5          5      1           2.31622597      1.72784085      0.00000000
H6          6      1           2.31622597     -1.72784085      0.00000000
[Charge] (Mulliken)
 -0.34439664148059101     
 -0.34439664133514025     
  0.17219832072722774     
  0.17219832072722552     
  0.17219832068059926     
  0.17219832068060570     
[GTO] (AU)
   1
   s   6
  3.047524880E+03  1.834737132E-03
  4.573695180E+02  1.403732281E-02
  1.039486850E+02  6.884262227E-02
  2.921015530E+01  2.321844432E-01
  9.286662960E+00  4.679413484E-01
  3.163926960E+00  3.623119853E-01
   s   3
  7.868272350E+00 -1.193324198E-01
  1.881288540E+00 -1.608541517E-01
  5.442492580E-01  1.143456438E+00
   s   1
  1.687144782E-01  1.000000000E+00
   p   3
  7.868272350E+00  6.899906659E-02
  1.881288540E+00  3.164239610E-01
  5.442492580E-01  7.443082909E-01
   p   1
  1.687144782E-01  1.000000000E+00
   d   1
  8.000000000E-01  1.000000000E+00
 
   2
   s   6
  3.047524880E+03  1.834737132E-03
  4.573695180E+02  1.403732281E-02
  1.039486850E+02  6.884262227E-02
  2.921015530E+01  2.321844432E-01
  9.286662960E+00  4.679413484E-01
  3.163926960E+00  3.623119853E-01
   s   3
  7.868272350E+00 -1.193324198E-01
  1.881288540E+00 -1.608541517E-01
  5.442492580E-01  1.143456438E+00
   s   1
  1.687144782E-01  1.000000000E+00
   p   3
  7.868272350E+00  6.899906659E-02
  1.881288540E+00  3.164239610E-01
  5.442492580E-01  7.443082909E-01
   p   1
  1.687144782E-01  1.000000000E+00
   d   1
  8.000000000E-01  1.000000000E+00
 
   3
   s   3
  1.873113696E+01  3.349460434E-02
  2.825394365E+00  2.347269535E-01
  6.401216923E-01  8.137573261E-01
   s   1
  1.612777588E-01  1.000000000E+00
 
   4
   s   3
  1.873113696E+01  3.349460434E-02
  2.825394365E+00  2.347269535E-01
  6.401216923E-01  8.137573261E-01
   s   1
  1.612777588E-01  1.000000000E+00
 
   5
   s   3
  1.873113696E+01  3.349460434E-02
  2.825394365E+00  2.347269535E-01
  6.401216923E-01  8.137573261E-01
   s   1
  1.612777588E-01  1.000000000E+00
 
   6
   s   3
  1.873113696E+01  3.349460434E-02
  2.825394365E+00  2.347269535E-01
  6.401216923E-01  8.137573261E-01
   s   1
  1.612777588E-01  1.000000000E+00
 
[MO]
Sym=     1a  
Ene=   -11.2140
Spin= Alpha
Occup=    2.00000
   1         0.70369933
   2         0.01949866
   3        -0.00535005
   4        -0.00011980
   5        -0.00000000
   6        -0.00000000
   7         0.00072560
   8         0.00000000
   9        -0.00000000
  10        -0.00138625
  11        -0.00172795
  12        -0.00193975
  13        -0.00000000
  14        -0.00000000
  15         0.00000000
  16         0.70369933
  17         0.01949866
  18        -0.00535005
  19         0.00011980
  20         0.00000000
  21        -0.00000000
  22        -0.00072560
  23        -0.00000000
  24         0.00000000
  25        -0.00138625
  26        -0.00172795
  27        -0.00193975
  28        -0.00000000
  29        -0.00000000
  30        -0.00000000
  31        -0.00013723
  32         0.00148534
  33        -0.00013723
  34         0.00148534
  35        -0.00013723
  36         0.00148534
  37        -0.00013723
  38         0.00148534
Sym=     2a  
Ene=   -11.2120
Spin= Alpha
Occup=    2.00000
   1        -0.70420172
   2        -0.02001184
   3         0.01120199
   4        -0.00022759
   5        -0.00000000
   6        -0.00000000
   7         0.00169024
   8         0.00000000
   9        -0.00000000
  10         0.00104042
  11         0.00135431
  12         0.00182802
  13         0.00000000
  14         0.00000000
  15         0.00000000
  16         0.70420173
  17         0.02001184
  18        -0.01120199
  19        -0.00022759
  20        -0.00000000
  21         0.00000000
  22         0.00169024
  23        -0.00000000
  24         0.00000000
  25        -0.00104042
  26        -0.00135431
  27        -0.00182802
  28         0.00000000
  29        -0.00000000
  30         0.00000000
  31         0.00006061
  32        -0.00153638
  33         0.00006061
  34        -0.00153638
  35        -0.00006061
  36         0.00153638
  37        -0.00006061
  38         0.00153638
Sym=     3a  
Ene=    -1.0293
Spin= Alpha
Occup=    2.00000
   1        -0.15791049
   2         0.29742822
   3         0.22732245
   4         0.10829528
   5        -0.00000000
   6         0.00000000
   7         0.00678801
   8        -0.00000000
   9         0.00000000
  10         0.01747568
  11         0.00495327
  12        -0.01265937
  13        -0.00000000
  14        -0.00000000
  15        -0.00000000
  16        -0.15791049
  17         0.29742822
  18         0.22732245
  19        -0.10829528
  20         0.00000000
  21        -0.00000000
  22        -0.00678801
  23         0.00000000
  24         0.00000000
  25         0.01747568
  26         0.00495327
  27        -0.01265937
  28        -0.00000000
  29        -0.00000000
  30        -0.00000000
  31         0.08278180
  32         0.01635717
  33         0.08278180
  34         0.01635717
  35         0.08278180
  36         0.01635717
  37         0.08278180
  38         0.01635717
Sym=     4a  
Ene=    -0.7858
Spin= Alpha
Occup=    2.00000
   1         0.11946171
   2        -0.22947662
   3        -0.23564424
   4         0.16703960
   5         0.00000000
   6        -0.00000000
   7         0.06543249
   8         0.00000000
   9        -0.00000000
  10        -0.00116195
  11        -0.02397049
  12         0.01043394
  13        -0.00000000
  14        -0.00000000
  15         0.00000000
  16        -0.11946171
  17         0.22947662
  18         0.23564424
  19         0.16703960
  20         0.00000000
  21        -0.00000000
  22         0.06543249
  23        -0.00000000
  24        -0.00000000
  25         0.00116195
  26         0.02397049
  27        -0.01043394
  28        -0.00000000
  29        -0.00000000
  30         0.00000000
  31        -0.14696062
  32        -0.06774652
  33        -0.14696062
  34        -0.06774652
  35         0.14696062
  36         0.06774652
  37         0.14696062
  38         0.06774652
Sym=     5a  
Ene=    -0.6374
Spin= Alpha
Occup=    2.00000
   1        -0.00000000
   2         0.00000000
   3         0.00000000
   4         0.00000000
   5         0.32059736
   6         0.00000000
   7         0.00000000
   8         0.12928333
   9        -0.00000000
  10        -0.00000000
  11         0.00000000
  12        -0.00000000
  13        -0.01256684
  14        -0.00000000
  15        -0.00000000
  16         0.00000000
  17        -0.00000000
  18        -0.00000000
  19        -0.00000000
  20         0.32059736
  21         0.00000000
  22        -0.00000000
  23         0.12928333
  24         0.00000000
  25         0.00000000
  26         0.00000000
  27         0.00000000
  28         0.01256684
  29        -0.00000000
  30        -0.00000000
  31         0.15738142
  32         0.10770479
  33        -0.15738142
  34        -0.10770479
  35         0.15738142
  36         0.10770479
  37        -0.15738142
  38        -0.10770479
Sym=     6a  
Ene=    -0.5823
Spin= Alpha
Occup=    2.00000
   1         0.01234614
   2        -0.02909435
   3         0.01466912
   4        -0.40674488
   5         0.00000000
   6         0.00000000
   7        -0.15320255
   8         0.00000000
   9        -0.00000000
  10        -0.01185493
  11         0.02659224
  12        -0.00115458
  13         0.00000000
  14        -0.00000000
  15         0.00000000
  16         0.01234614
  17        -0.02909435
  18         0.01466912
  19         0.40674488
  20         0.00000000
  21        -0.00000000
  22         0.15320255
  23         0.00000000
  24        -0.00000000
  25        -0.01185493
  26         0.02659224
  27        -0.00115458
  28         0.00000000
  29         0.00000000
  30        -0.00000000
  31         0.12547403
  32         0.10198242
  33         0.12547403
  34         0.10198242
  35         0.12547403
  36         0.10198242
  37         0.12547403
  38         0.10198242
Sym=     7a  
Ene=    -0.4986
Spin= Alpha
Occup=    2.00000
   1         0.00000000
   2         0.00000000
   3        -0.00000000
   4         0.00000000
   5        -0.30230674
   6        -0.00000000
   7        -0.00000000
   8        -0.19826538
   9        -0.00000000
  10        -0.00000000
  11        -0.00000000
  12        -0.00000000
  13         0.03685684
  14         0.00000000
  15        -0.00000000
  16         0.00000000
  17        -0.00000000
  18         0.00000000
  19        -0.00000000
  20         0.30230674
  21        -0.00000000
  22        -0.00000000
  23         0.19826538
  24        -0.00000000
  25         0.00000000
  26         0.00000000
  27         0.00000000
  28         0.03685684
  29         0.00000000
  30        -0.00000000
  31        -0.18944048
  32        -0.15660057
  33         0.18944048
  34         0.15660057
  35         0.18944048
  36         0.15660057
  37        -0.18944048
  38        -0.15660057
Sym=     8a  
Ene=    -0.3604
Spin= Alpha
Occup=    1.91511
   1         0.00000000
   2        -0.00000000
   3        -0.00000000
   4        -0.00000000
   5        -0.00000000
   6         0.38978778
   7        -0.00000000
   8        -0.00000000
   9         0.29206461
  10         0.00000000
  11        -0.00000000
  12         0.00000000
  13         0.00000000
  14         0.02178457
  15         0.00000000
  16         0.00000000
  17         0.00000000
  18         0.00000000
  19         0.00000000
  20         0.00000000
  21         0.38978778
  22        -0.00000000
  23         0.00000000
  24         0.29206461
  25         0.00000000
  26         0.00000000
  27         0.00000000
  28         0.00000000
  29        -0.02178457
  30         0.00000000
  31        -0.00000000
  32        -0.00000000
  33         0.00000000
  34         0.00000000
  35         0.00000000
  36         0.00000000
  37         0.00000000
  38         0.00000000
Sym=     9a  
Ene=     0.0000
Spin= Alpha
Occup=    0.08489
   1         0.00000000
   2        -0.00000000
   3        -0.00000000
   4        -0.00000000
   5         0.00000000
   6        -0.57420594
   7         0.00000000
   8        -0.00000000
   9        -0.39764795
  10        -0.00000000
  11        -0.00000000
  12         0.00000000
  13        -0.00000000
  14         0.00575310
  15         0.00000000
  16        -0.00000000
  17        -0.00000000
  18        -0.00000000
  19         0.00000000
  20        -0.00000000
  21         0.57420594
  22         0.00000000
  23         0.00000000
  24         0.39764795
  25        -0.00000000
  26         0.00000000
  27         0.00000000
  28         0.00000000
  29         0.00575310
  30         0.00000000
  31         0.00000000
  32         0.00000000
  33         0.00000000
  34         0.00000000
  35         0.00000000
  36        -0.00000000
  37         0.00000000
  38         0.00000000
Sym=    10a  
Ene=     0.2691
Spin= Alpha
Occup=    0.00000
   1         0.07773193
   2        -0.07914225
   3        -1.50633298
   4         0.14457434
   5        -0.00000000
   6         0.00000000
   7         0.65575884
   8        -0.00000000
   9         0.00000000
  10        -0.00391037
  11         0.01056361
  12         0.00434347
  13        -0.00000000
  14         0.00000000
  15        -0.00000000
  16         0.07773193
  17        -0.07914225
  18        -1.50633298
  19        -0.14457434
  20        -0.00000000
  21        -0.00000000
  22        -0.65575884
  23        -0.00000000
  24        -0.00000000
  25        -0.00391037
  26         0.01056361
  27         0.00434347
  28         0.00000000
  29         0.00000000
  30        -0.00000000
  31         0.01151927
  32         1.04396840
  33         0.01151927
  34         1.04396840
  35         0.01151927
  36         1.04396840
  37         0.01151927
  38         1.04396840
Sym=    11a  
Ene=     0.2952
Spin= Alpha
Occup=    0.00000
   1         0.00000000
   2        -0.00000000
   3        -0.00000000
   4         0.00000000
   5         0.25253435
   6         0.00000000
   7         0.00000000
   8         0.80516816
   9         0.00000000
  10         0.00000000
  11         0.00000000
  12         0.00000000
  13         0.02295596
  14         0.00000000
  15        -0.00000000
  16        -0.00000000
  17         0.00000000
  18         0.00000000
  19         0.00000000
  20         0.25253435
  21        -0.00000000
  22        -0.00000000
  23         0.80516816
  24        -0.00000000
  25        -0.00000000
  26         0.00000000
  27        -0.00000000
  28        -0.02295596
  29         0.00000000
  30         0.00000000
  31        -0.04032352
  32        -1.10114349
  33         0.04032352
  34         1.10114349
  35        -0.04032352
  36        -1.10114349
  37         0.04032352
  38         1.10114349
Sym=    12a  
Ene=     0.3130
Spin= Alpha
Occup=    0.00000
   1         0.10808557
   2        -0.09943878
   3        -1.96654901
   4         0.09978547
   5        -0.00000000
   6         0.00000000
   7         0.15713058
   8        -0.00000000
   9         0.00000000
  10         0.00397049
  11        -0.00136670
  12         0.01085850
  13        -0.00000000
  14        -0.00000000
  15        -0.00000000
  16        -0.10808557
  17         0.09943878
  18         1.96654901
  19         0.09978547
  20        -0.00000000
  21        -0.00000000
  22         0.15713058
  23        -0.00000000
  24         0.00000000
  25        -0.00397049
  26         0.00136670
  27        -0.01085850
  28         0.00000000
  29         0.00000000
  30        -0.00000000
  31         0.01443826
  32         1.08589511
  33         0.01443826
  34         1.08589511
  35        -0.01443826
  36        -1.08589511
  37        -0.01443826
  38        -1.08589511
Sym=    13a  
Ene=     0.3954
Spin= Alpha
Occup=    0.00000
   1         0.00000000
   2         0.00000000
   3        -0.00000000
   4        -0.00000000
   5        -0.24553606
   6         0.00000000
   7        -0.00000000
   8        -1.91996431
   9         0.00000000
  10        -0.00000000
  11        -0.00000000
  12        -0.00000000
  13         0.01744395
  14         0.00000000
  15        -0.00000000
  16        -0.00000000
  17        -0.00000000
  18         0.00000000
  19        -0.00000000
  20         0.24553606
  21        -0.00000000
  22        -0.00000000
  23         1.91996431
  24         0.00000000
  25         0.00000000
  26        -0.00000000
  27        -0.00000000
  28         0.01744395
  29        -0.00000000
  30        -0.00000000
  31        -0.04228017
  32         1.64781086
  33         0.04228017
  34        -1.64781086
  35         0.04228017
  36        -1.64781086
  37        -0.04228017
  38         1.64781086
Sym=    14a  
Ene=     0.4993
Spin= Alpha
Occup=    0.00000
   1        -0.06579353
   2        -0.00086381
   3         3.20895447
   4         0.12649830
   5        -0.00000000
   6         0.00000000
   7         3.05750282
   8        -0.00000000
   9         0.00000000
  10         0.00312235
  11         0.02331345
  12        -0.01176843
  13         0.00000000
  14         0.00000000
  15        -0.00000000
  16         0.06579353
  17         0.00086381
  18        -3.20895447
  19         0.12649830
  20         0.00000000
  21        -0.00000000
  22         3.05750282
  23         0.00000000
  24         0.00000000
  25        -0.00312235
  26        -0.02331345
  27         0.01176843
  28         0.00000000
  29        -0.00000000
  30         0.00000000
  31         0.08020085
  32         0.59626961
  33         0.08020085
  34         0.59626961
  35        -0.08020085
  36        -0.59626961
  37        -0.08020085
  38        -0.59626961
Sym=    15a  
Ene=     0.6641
Spin= Alpha
Occup=    0.00000
   1        -0.02260132
   2        -0.22040722
   3        -0.18190785
   4        -0.54630414
   5         0.00000000
   6         0.00000000
   7         1.03493759
   8         0.00000000
   9        -0.00000000
  10        -0.07598277
  11         0.03101018
  12        -0.00171609
  13         0.00000000
  14         0.00000000
  15        -0.00000000
  16        -0.02260132
  17        -0.22040722
  18        -0.18190785
  19         0.54630414
  20         0.00000000
  21        -0.00000000
  22        -1.03493759
  23        -0.00000000
  24         0.00000000
  25        -0.07598277
  26         0.03101018
  27        -0.00171609
  28        -0.00000000
  29        -0.00000000
  30        -0.00000000
  31         0.09533982
  32         0.05712782
  33         0.09533982
  34         0.05712782
  35         0.09533982
  36         0.05712782
  37         0.09533982
  38         0.05712782
Sym=    16a  
Ene=     0.7701
Spin= Alpha
Occup=    0.00000
   1        -0.00000000
   2        -0.00000000
   3         0.00000000
   4        -0.00000000
   5        -0.39765334
   6         0.00000000
   7         0.00000000
   8         0.77526430
   9        -0.00000000
  10        -0.00000000
  11         0.00000000
  12        -0.00000000
  13         0.09150051
  14         0.00000000
  15        -0.00000000
  16        -0.00000000
  17        -0.00000000
  18        -0.00000000
  19         0.00000000
  20        -0.39765334
  21         0.00000000
  22         0.00000000
  23         0.77526430
  24        -0.00000000
  25         0.00000000
  26        -0.00000000
  27         0.00000000
  28        -0.09150051
  29        -0.00000000
  30         0.00000000
  31        -0.39016268
  32        -0.07034659
  33         0.39016268
  34         0.07034659
  35        -0.39016268
  36        -0.07034659
  37         0.39016268
  38         0.07034659
Sym=    17a  
Ene=     0.7726
Spin= Alpha
Occup=    0.00000
   1        -0.00000000
   2         0.00000000
   3         0.00000000
   4         0.00000000
   5         0.00000000
   6         0.72915713
   7         0.00000000
   8        -0.00000000
   9        -0.64462313
  10        -0.00000000
  11        -0.00000000
  12        -0.00000000
  13        -0.00000000
  14         0.06899158
  15        -0.00000000
  16         0.00000000
  17        -0.00000000
  18        -0.00000000
  19        -0.00000000
  20        -0.00000000
  21         0.72915713
  22         0.00000000
  23         0.00000000
  24        -0.64462313
  25         0.00000000
  26         0.00000000
  27         0.00000000
  28        -0.00000000
  29        -0.06899158
  30         0.00000000
  31         0.00000000
  32         0.00000000
  33        -0.00000000
  34        -0.00000000
  35         0.00000000
  36        -0.00000000
  37        -0.00000000
  38         0.00000000
Sym=    18a  
Ene=     0.8317
Spin= Alpha
Occup=    0.00000
   1        -0.00000000
   2         0.00000000
   3        -0.00000000
   4         0.00000000
   5         0.00000000
   6         0.68178907
   7         0.00000000
   8         0.00000000
   9        -1.25515745
  10         0.00000000
  11         0.00000000
  12        -0.00000000
  13         0.00000000
  14        -0.02344314
  15        -0.00000000
  16        -0.00000000
  17         0.00000000
  18        -0.00000000
  19        -0.00000000
  20         0.00000000
  21        -0.68178907
  22         0.00000000
  23        -0.00000000
  24         1.25515745
  25         0.00000000
  26         0.00000000
  27        -0.00000000
  28        -0.00000000
  29        -0.02344314
  30        -0.00000000
  31        -0.00000000
  32         0.00000000
  33         0.00000000
  34         0.00000000
  35         0.00000000
  36         0.00000000
  37         0.00000000
  38        -0.00000000
Sym=    19a  
Ene=     0.8554
Spin= Alpha
Occup=    0.00000
   1         0.04102823
   2         0.78929290
   3        -1.56221455
   4         0.00808634
   5        -0.00000000
   6        -0.00000000
   7         0.38075866
   8         0.00000000
   9         0.00000000
  10         0.09173548
  11         0.15539993
  12        -0.04074818
  13         0.00000000
  14        -0.00000000
  15        -0.00000000
  16         0.04102823
  17         0.78929290
  18        -1.56221455
  19        -0.00808634
  20         0.00000000
  21         0.00000000
  22        -0.38075866
  23        -0.00000000
  24        -0.00000000
  25         0.09173548
  26         0.15539993
  27        -0.04074818
  28        -0.00000000
  29         0.00000000
  30        -0.00000000
  31         0.38120554
  32         0.26942755
  33         0.38120554
  34         0.26942755
  35         0.38120554
  36         0.26942755
  37         0.38120554
  38         0.26942755
Sym=    20a  
Ene=     0.9691
Spin= Alpha
Occup=    0.00000
   1         0.09852764
   2         0.09988869
   3        -1.25043449
   4        -0.57547353
   5        -0.00000000
   6        -0.00000000
   7         0.31006495
   8         0.00000000
   9        -0.00000000
  10         0.18356563
  11         0.05325559
  12        -0.09300943
  13        -0.00000000
  14         0.00000000
  15         0.00000000
  16        -0.09852764
  17        -0.09988869
  18         1.25043449
  19        -0.57547353
  20        -0.00000000
  21        -0.00000000
  22         0.31006495
  23         0.00000000
  24         0.00000000
  25        -0.18356563
  26        -0.05325559
  27         0.09300943
  28         0.00000000
  29         0.00000000
  30        -0.00000000
  31         0.38923615
  32         0.10448184
  33         0.38923615
  34         0.10448184
  35        -0.38923615
  36        -0.10448184
  37        -0.38923615
  38        -0.10448184
Sym=    21a  
Ene=     1.1134
Spin= Alpha
Occup=    0.00000
   1        -0.00000000
   2        -0.00000000
   3        -0.00000000
   4         0.00000000
   5        -0.68671779
   6         0.00000000
   7        -0.00000000
   8         1.10653372
   9        -0.00000000
  10        -0.00000000
  11         0.00000000
  12         0.00000000
  13        -0.18865392
  14        -0.00000000
  15         0.00000000
  16         0.00000000
  17        -0.00000000
  18         0.00000000
  19        -0.00000000
  20        -0.68671779
  21        -0.00000000
  22        -0.00000000
  23         1.10653372
  24         0.00000000
  25         0.00000000
  26         0.00000000
  27        -0.00000000
  28         0.18865392
  29        -0.00000000
  30         0.00000000
  31         0.37833776
  32        -1.06755971
  33        -0.37833776
  34         1.06755971
  35         0.37833776
  36        -1.06755971
  37        -0.37833776
  38         1.06755971
Sym=    22a  
Ene=     1.1684
Spin= Alpha
Occup=    0.00000
   1        -0.00000000
   2         0.00000000
   3        -0.00000000
   4         0.00000000
   5         0.92913700
   6         0.00000000
   7        -0.00000000
   8        -2.99343900
   9        -0.00000000
  10        -0.00000000
  11         0.00000000
  12        -0.00000000
  13        -0.01006369
  14        -0.00000000
  15        -0.00000000
  16        -0.00000000
  17        -0.00000000
  18         0.00000000
  19         0.00000000
  20        -0.92913700
  21        -0.00000000
  22        -0.00000000
  23         2.99343900
  24         0.00000000
  25         0.00000000
  26        -0.00000000
  27        -0.00000000
  28        -0.01006369
  29         0.00000000
  30        -0.00000000
  31        -0.14447555
  32         1.51851620
  33         0.14447555
  34        -1.51851620
  35         0.14447555
  36        -1.51851620
  37        -0.14447555
  38         1.51851620
Sym=    23a  
Ene=     1.2162
Spin= Alpha
Occup=    0.00000
   1        -0.01784998
   2         0.92749282
   3        -1.73740257
   4        -0.37593033
   5        -0.00000000
   6        -0.00000000
   7         0.49769692
   8         0.00000000
   9        -0.00000000
  10         0.10009174
  11        -0.05920080
  12         0.12057343
  13        -0.00000000
  14         0.00000000
  15         0.00000000
  16        -0.01784998
  17         0.92749282
  18        -1.73740257
  19         0.37593033
  20        -0.00000000
  21        -0.00000000
  22        -0.49769692
  23         0.00000000
  24        -0.00000000
  25         0.10009174
  26        -0.05920080
  27         0.12057343
  28         0.00000000
  29         0.00000000
  30        -0.00000000
  31        -0.45347674
  32         0.87368766
  33        -0.45347674
  34         0.87368766
  35        -0.45347674
  36         0.87368766
  37        -0.45347674
  38         0.87368766
Sym=    24a  
Ene=     1.2260
Spin= Alpha
Occup=    0.00000
   1        -0.01664961
   2         0.59517257
   3        -1.03748812
   4        -0.58854246
   5         0.00000000
   6        -0.00000000
   7         1.05295279
   8        -0.00000000
   9         0.00000000
  10         0.14730345
  11        -0.09227823
  12         0.10119887
  13         0.00000000
  14         0.00000000
  15         0.00000000
  16         0.01664961
  17        -0.59517257
  18         1.03748813
  19        -0.58854246
  20         0.00000000
  21        -0.00000000
  22         1.05295280
  23         0.00000000
  24        -0.00000000
  25        -0.14730345
  26         0.09227823
  27        -0.10119887
  28        -0.00000000
  29         0.00000000
  30         0.00000000
  31        -0.45897165
  32         1.00851590
  33        -0.45897165
  34         1.00851590
  35         0.45897165
  36        -1.00851590
  37         0.45897165
  38        -1.00851590
Sym=    25a  
Ene=     1.3471
Spin= Alpha
Occup=    0.00000
   1         0.02884449
   2         1.44360222
   3        -5.55422734
   4         0.35627128
   5        -0.00000000
   6         0.00000000
   7        -2.10288527
   8         0.00000000
   9        -0.00000000
  10        -0.07198301
  11         0.21202102
  12         0.06157250
  13        -0.00000000
  14        -0.00000000
  15         0.00000000
  16        -0.02884449
  17        -1.44360222
  18         5.55422734
  19         0.35627128
  20         0.00000000
  21         0.00000000
  22        -2.10288527
  23        -0.00000000
  24         0.00000000
  25         0.07198301
  26        -0.21202102
  27        -0.06157250
  28        -0.00000000
  29        -0.00000000
  30         0.00000000
  31         0.14164907
  32         0.25503583
  33         0.14164907
  34         0.25503583
  35        -0.14164907
  36        -0.25503583
  37        -0.14164907
  38        -0.25503583
Sym=    26a  
Ene=     1.4880
Spin= Alpha
Occup=    0.00000
   1        -0.00000000
   2        -0.00000000
   3         0.00000000
   4        -0.00000000
   5         0.01696261
   6         0.00000000
   7         0.00000000
   8        -2.59092738
   9        -0.00000000
  10        -0.00000000
  11        -0.00000000
  12        -0.00000000
  13        -0.16719841
  14         0.00000000
  15         0.00000000
  16         0.00000000
  17         0.00000000
  18        -0.00000000
  19        -0.00000000
  20        -0.01696261
  21         0.00000000
  22         0.00000000
  23         2.59092738
  24         0.00000000
  25         0.00000000
  26         0.00000000
  27         0.00000000
  28        -0.16719841
  29        -0.00000000
  30         0.00000000
  31         0.70279422
  32         0.68369345
  33        -0.70279422
  34        -0.68369345
  35        -0.70279422
  36        -0.68369345
  37         0.70279422
  38         0.68369345
Sym=    27a  
Ene=     1.7510
Spin= Alpha
Occup=    0.00000
   1        -0.00000000
   2         0.00000000
   3         0.00000000
   4        -0.00000000
   5        -0.00000000
   6         0.19603880
   7         0.00000000
   8        -0.00000000
   9        -0.04939140
  10        -0.00000000
  11        -0.00000000
  12         0.00000000
  13         0.00000000
  14        -0.61666652
  15        -0.00000000
  16         0.00000000
  17         0.00000000
  18        -0.00000000
  19        -0.00000000
  20         0.00000000
  21         0.19603880
  22         0.00000000
  23         0.00000000
  24        -0.04939140
  25         0.00000000
  26        -0.00000000
  27         0.00000000
  28        -0.00000000
  29         0.61666652
  30         0.00000000
  31         0.00000000
  32         0.00000000
  33        -0.00000000
  34         0.00000000
  35        -0.00000000
  36         0.00000000
  37        -0.00000000
  38         0.00000000
Sym=    28a  
Ene=     1.8187
Spin= Alpha
Occup=    0.00000
   1         0.00000000
   2        -0.00000000
   3         0.00000000
   4        -0.00000000
   5         0.00000000
   6         0.00000000
   7         0.00000000
   8        -0.00000000
   9        -0.00000000
  10         0.00000000
  11        -0.00000000
  12        -0.00000000
  13         0.00000000
  14        -0.00000000
  15         0.67916786
  16        -0.00000000
  17         0.00000000
  18        -0.00000000
  19         0.00000000
  20         0.00000000
  21        -0.00000000
  22         0.00000000
  23         0.00000000
  24        -0.00000000
  25         0.00000000
  26        -0.00000000
  27         0.00000000
  28        -0.00000000
  29         0.00000000
  30         0.67916786
  31        -0.00000000
  32         0.00000000
  33         0.00000000
  34        -0.00000000
  35         0.00000000
  36        -0.00000000
  37        -0.00000000
  38         0.00000000
Sym=    29a  
Ene=     2.1404
Spin= Alpha
Occup=    0.00000
   1        -0.00000000
   2         0.00000000
   3        -0.00000000
   4        -0.00000000
   5        -0.00000000
   6        -0.00000000
   7        -0.00000000