[Molden Format]
[N_Atoms]
                    6
[Atoms] (AU)
C1          1      6          -1.24432229      0.00000000      0.00000000
C2          2      6           1.24432229      0.00000000      0.00000000
H3          3      1          -2.31622597      1.72784085      0.00000000
H4          4      1          -2.31622597     -1.72784085      0.00000000
H5          5      1           2.31622597      1.72784085      0.00000000
H6          6      1           2.31622597     -1.72784085      0.00000000
[Charge] (Mulliken)
   0.0000000000000000     
   0.0000000000000000     
   0.0000000000000000     
   0.0000000000000000     
   0.0000000000000000     
   0.0000000000000000     
[GTO] (AU)
   1
   s   6
  3.047524880E+03  1.834737132E-03
  4.573695180E+02  1.403732281E-02
  1.039486850E+02  6.884262227E-02
  2.921015530E+01  2.321844432E-01
  9.286662960E+00  4.679413484E-01
  3.163926960E+00  3.623119853E-01
   s   3
  7.868272350E+00 -1.193324198E-01
  1.881288540E+00 -1.608541517E-01
  5.442492580E-01  1.143456438E+00
   s   1
  1.687144782E-01  1.000000000E+00
   p   3
  7.868272350E+00  6.899906659E-02
  1.881288540E+00  3.164239610E-01
  5.442492580E-01  7.443082909E-01
   p   1
  1.687144782E-01  1.000000000E+00
   d   1
  8.000000000E-01  1.000000000E+00
 
   2
   s   6
  3.047524880E+03  1.834737132E-03
  4.573695180E+02  1.403732281E-02
  1.039486850E+02  6.884262227E-02
  2.921015530E+01  2.321844432E-01
  9.286662960E+00  4.679413484E-01
  3.163926960E+00  3.623119853E-01
   s   3
  7.868272350E+00 -1.193324198E-01
  1.881288540E+00 -1.608541517E-01
  5.442492580E-01  1.143456438E+00
   s   1
  1.687144782E-01  1.000000000E+00
   p   3
  7.868272350E+00  6.899906659E-02
  1.881288540E+00  3.164239610E-01
  5.442492580E-01  7.443082909E-01
   p   1
  1.687144782E-01  1.000000000E+00
   d   1
  8.000000000E-01  1.000000000E+00
 
   3
   s   3
  1.873113696E+01  3.349460434E-02
  2.825394365E+00  2.347269535E-01
  6.401216923E-01  8.137573261E-01
   s   1
  1.612777588E-01  1.000000000E+00
 
   4
   s   3
  1.873113696E+01  3.349460434E-02
  2.825394365E+00  2.347269535E-01
  6.401216923E-01  8.137573261E-01
   s   1
  1.612777588E-01  1.000000000E+00
 
   5
   s   3
  1.873113696E+01  3.349460434E-02
  2.825394365E+00  2.347269535E-01
  6.401216923E-01  8.137573261E-01
   s   1
  1.612777588E-01  1.000000000E+00
 
   6
   s   3
  1.873113696E+01  3.349460434E-02
  2.825394365E+00  2.347269535E-01
  6.401216923E-01  8.137573261E-01
   s   1
  1.612777588E-01  1.000000000E+00
 
[MO]
Sym=     1a  
Ene=   -11.3510
Spin= Alpha
Occup=    2.00000
   1         0.70234363
   2         0.01436705
   3         0.00096182
   4         0.00193539
   5         0.00000000
   6        -0.00000000
   7         0.00120865
   8         0.00000000
   9        -0.00000000
  10         0.00000000
  11         0.00000000
  12         0.00000000
  13        -0.00000000
  14        -0.00000000
  15        -0.00000000
  16         0.70234363
  17         0.01436705
  18         0.00096182
  19        -0.00193539
  20        -0.00000000
  21        -0.00000000
  22        -0.00120865
  23        -0.00000000
  24         0.00000000
  25        -0.00000000
  26        -0.00000000
  27        -0.00000000
  28        -0.00000000
  29        -0.00000000
  30         0.00000000
  31         0.00157225
  32         0.00175549
  33         0.00157225
  34         0.00175549
  35         0.00157225
  36         0.00175549
  37         0.00157225
  38         0.00175549
Sym=     2a  
Ene=   -11.3300
Spin= Alpha
Occup=    2.00000
   1        -0.70439122
   2        -0.01170836
   3         0.00204209
   4         0.00190404
   5        -0.00000000
   6        -0.00000000
   7         0.00118908
   8         0.00000000
   9         0.00000000
  10        -0.00000000
  11        -0.00000000
  12        -0.00000000
  13        -0.00000000
  14         0.00000000
  15        -0.00000000
  16         0.70439122
  17         0.01170836
  18        -0.00204209
  19         0.00190404
  20         0.00000000
  21         0.00000000
  22         0.00118908
  23        -0.00000000
  24        -0.00000000
  25        -0.00000000
  26        -0.00000000
  27        -0.00000000
  28        -0.00000000
  29         0.00000000
  30         0.00000000
  31        -0.00118032
  32        -0.00131788
  33        -0.00118032
  34        -0.00131788
  35         0.00118032
  36         0.00131788
  37         0.00118032
  38         0.00131788
Sym=     3a  
Ene=    -1.4686
Spin= Alpha
Occup=    2.00000
   1        -0.15738455
   2         0.19901220
   3         0.22494088
   4         0.04884784
   5         0.00000000
   6         0.00000000
   7         0.03050545
   8        -0.00000000
   9         0.00000000
  10        -0.00000000
  11         0.00000000
  12         0.00000000
  13         0.00000000
  14        -0.00000000
  15        -0.00000000
  16        -0.15738455
  17         0.19901220
  18         0.22494088
  19        -0.04884784
  20        -0.00000000
  21         0.00000000
  22        -0.03050545
  23         0.00000000
  24         0.00000000
  25        -0.00000000
  26        -0.00000000
  27        -0.00000000
  28         0.00000000
  29        -0.00000000
  30        -0.00000000
  31         0.08455167
  32         0.09440632
  33         0.08455167
  34         0.09440632
  35         0.08455167
  36         0.09440632
  37         0.08455167
  38         0.09440632
Sym=     4a  
Ene=    -1.0278
Spin= Alpha
Occup=    2.00000
   1         0.11515208
   2        -0.16353605
   3        -0.18453919
   4         0.15239563
   5         0.00000000
   6        -0.00000000
   7         0.09517099
   8        -0.00000000
   9        -0.00000000
  10         0.00000000
  11         0.00000000
  12         0.00000000
  13         0.00000000
  14        -0.00000000
  15        -0.00000000
  16        -0.11515208
  17         0.16353605
  18         0.18453919
  19         0.15239563
  20        -0.00000000
  21        -0.00000000
  22         0.09517099
  23         0.00000000
  24        -0.00000000
  25        -0.00000000
  26        -0.00000000
  27        -0.00000000
  28        -0.00000000
  29         0.00000000
  30        -0.00000000
  31        -0.12281436
  32        -0.13712858
  33        -0.12281436
  34        -0.13712858
  35         0.12281436
  36         0.13712858
  37         0.12281436
  38         0.13712858
Sym=     5a  
Ene=    -0.8469
Spin= Alpha
Occup=    2.00000
   1        -0.00000000
   2         0.00000000
   3         0.00000000
   4         0.00000000
   5         0.27303297
   6        -0.00000000
   7         0.00000000
   8         0.17050895
   9        -0.00000000
  10        -0.00000000
  11        -0.00000000
  12        -0.00000000
  13        -0.00000000
  14        -0.00000000
  15         0.00000000
  16         0.00000000
  17         0.00000000
  18        -0.00000000
  19         0.00000000
  20         0.27303297
  21        -0.00000000
  22        -0.00000000
  23         0.17050895
  24         0.00000000
  25         0.00000000
  26         0.00000000
  27         0.00000000
  28        -0.00000000
  29        -0.00000000
  30        -0.00000000
  31         0.12432928
  32         0.13882008
  33        -0.12432928
  34        -0.13882008
  35         0.12432928
  36         0.13882008
  37        -0.12432928
  38        -0.13882008
Sym=     6a  
Ene=    -0.6084
Spin= Alpha
Occup=    2.00000
   1         0.04082472
   2        -0.04596891
   3        -0.05205376
   4        -0.36215123
   5         0.00000000
   6        -0.00000000
   7        -0.22616325
   8        -0.00000000
   9        -0.00000000
  10         0.00000000
  11        -0.00000000
  12         0.00000000
  13         0.00000000
  14         0.00000000
  15         0.00000000
  16         0.04082472
  17        -0.04596891
  18        -0.05205376
  19         0.36215123
  20         0.00000000
  21        -0.00000000
  22         0.22616325
  23        -0.00000000
  24        -0.00000000
  25        -0.00000000
  26         0.00000000
  27        -0.00000000
  28        -0.00000000
  29         0.00000000
  30        -0.00000000
  31         0.10876980
  32         0.12144711
  33         0.10876980
  34         0.12144711
  35         0.10876980
  36         0.12144711
  37         0.10876980
  38         0.12144711
Sym=     7a  
Ene=    -0.5739
Spin= Alpha
Occup=    2.00000
   1         0.00000000
   2         0.00000000
   3        -0.00000000
   4        -0.00000000
   5        -0.00000000
   6         0.42464393
   7        -0.00000000
   8        -0.00000000
   9         0.26518991
  10        -0.00000000
  11        -0.00000000
  12        -0.00000000
  13        -0.00000000
  14        -0.00000000
  15         0.00000000
  16        -0.00000000
  17         0.00000000
  18         0.00000000
  19        -0.00000000
  20         0.00000000
  21         0.42464393
  22        -0.00000000
  23         0.00000000
  24         0.26518991
  25        -0.00000000
  26        -0.00000000
  27        -0.00000000
  28         0.00000000
  29        -0.00000000
  30        -0.00000000
  31        -0.00000000
  32        -0.00000000
  33         0.00000000
  34         0.00000000
  35         0.00000000
  36         0.00000000
  37        -0.00000000
  38        -0.00000000
Sym=     8a  
Ene=    -0.5531
Spin= Alpha
Occup=    2.00000
   1         0.00000000
   2        -0.00000000
   3        -0.00000000
   4        -0.00000000
   5        -0.28153504
   6        -0.00000000
   7         0.00000000
   8        -0.17581848
   9        -0.00000000
  10         0.00000000
  11        -0.00000000
  12         0.00000000
  13         0.00000000
  14        -0.00000000
  15        -0.00000000
  16        -0.00000000
  17         0.00000000
  18        -0.00000000
  19        -0.00000000
  20         0.28153504
  21        -0.00000000
  22        -0.00000000
  23         0.17581848
  24        -0.00000000
  25         0.00000000
  26         0.00000000
  27         0.00000000
  28        -0.00000000
  29         0.00000000
  30        -0.00000000
  31        -0.18704422
  32        -0.20884455
  33         0.18704422
  34         0.20884455
  35         0.18704422
  36         0.20884455
  37        -0.18704422
  38        -0.20884455
Sym=     9a  
Ene=    -0.2960
Spin= Alpha
Occup=    0.00000
   1        -0.00000000
   2         0.00000000
   3         0.00000000
   4         0.00000000
   5         0.00000000
   6        -0.59122270
   7         0.00000000
   8         0.00000000
   9        -0.36921827
  10        -0.00000000
  11        -0.00000000
  12        -0.00000000
  13        -0.00000000
  14        -0.00000000
  15        -0.00000000
  16         0.00000000
  17         0.00000000
  18        -0.00000000
  19         0.00000000
  20         0.00000000
  21         0.59122270
  22         0.00000000
  23         0.00000000
  24         0.36921827
  25        -0.00000000
  26        -0.00000000
  27         0.00000000
  28         0.00000000
  29         0.00000000
  30        -0.00000000
  31        -0.00000000
  32        -0.00000000
  33         0.00000000
  34         0.00000000
  35        -0.00000000
  36        -0.00000000
  37         0.00000000
  38         0.00000000
Sym=    10a  
Ene=    -0.1468
Spin= Alpha
Occup=    0.00000
   1         0.00000000
   2        -0.00000000
   3        -0.00000000
   4        -0.00000000
   5         0.52431286
   6        -0.00000000
   7        -0.00000000
   8         0.32743311
   9         0.00000000
  10         0.00000000
  11         0.00000000
  12         0.00000000
  13         0.00000000
  14        -0.00000000
  15         0.00000000
  16        -0.00000000
  17         0.00000000
  18         0.00000000
  19        -0.00000000
  20         0.52431286
  21        -0.00000000
  22        -0.00000000
  23         0.32743311
  24        -0.00000000
  25        -0.00000000
  26        -0.00000000
  27        -0.00000000
  28         0.00000000
  29        -0.00000000
  30         0.00000000
  31        -0.37353339
  32        -0.41706936
  33         0.37353339
  34         0.41706936
  35        -0.37353339
  36        -0.41706936
  37         0.37353339
  38         0.41706936
Sym=    11a  
Ene=    -0.1323
Spin= Alpha
Occup=    0.00000
   1         0.09406059
   2        -0.47887032
   3        -0.53516798
   4         0.39017155
   5         0.00000000
   6        -0.00000000
   7         0.24366193
   8         0.00000000
   9         0.00000000
  10         0.00000000
  11         0.00000000
  12         0.00000000
  13        -0.00000000
  14         0.00000000
  15        -0.00000000
  16         0.09406059
  17        -0.47887032
  18        -0.53516798
  19        -0.39017155
  20         0.00000000
  21         0.00000000
  22        -0.24366193
  23        -0.00000000
  24        -0.00000000
  25         0.00000000
  26         0.00000000
  27         0.00000000
  28         0.00000000
  29         0.00000000
  30         0.00000000
  31         0.34606816
  32         0.38640301
  33         0.34606816
  34         0.38640301
  35         0.34606816
  36         0.38640301
  37         0.34606816
  38         0.38640301
Sym=    12a  
Ene=    -0.1320
Spin= Alpha
Occup=    0.00000
   1         0.11275372
   2        -0.47295853
   3        -0.52898617
   4         0.33335615
   5        -0.00000000
   6        -0.00000000
   7         0.20818074
   8         0.00000000
   9         0.00000000
  10         0.00000000
  11         0.00000000
  12         0.00000000
  13        -0.00000000
  14         0.00000000
  15        -0.00000000
  16        -0.11275372
  17         0.47295853
  18         0.52898617
  19         0.33335615
  20        -0.00000000
  21         0.00000000
  22         0.20818074
  23        -0.00000000
  24        -0.00000000
  25        -0.00000000
  26        -0.00000000
  27        -0.00000000
  28         0.00000000
  29        -0.00000000
  30        -0.00000000
  31         0.36834964
  32         0.41128143
  33         0.36834964
  34         0.41128143
  35        -0.36834964
  36        -0.41128143
  37        -0.36834964
  38        -0.41128143
Sym=    13a  
Ene=    -0.1071
Spin= Alpha
Occup=    0.00000
   1        -0.00000000
   2         0.00000000
   3         0.00000000
   4         0.00000000
   5        -0.74610916
   6        -0.00000000
   7         0.00000000
   8        -0.46594478
   9        -0.00000000
  10        -0.00000000
  11        -0.00000000
  12        -0.00000000
  13        -0.00000000
  14        -0.00000000
  15        -0.00000000
  16         0.00000000
  17        -0.00000000
  18        -0.00000000
  19         0.00000000
  20         0.74610916
  21        -0.00000000
  22         0.00000000
  23         0.46594478
  24         0.00000000
  25         0.00000000
  26         0.00000000
  27         0.00000000
  28         0.00000000
  29        -0.00000000
  30         0.00000000
  31         0.36432399
  32         0.40678659
  33        -0.36432399
  34        -0.40678659
  35        -0.36432399
  36        -0.40678659
  37         0.36432399
  38         0.40678659
Sym=    14a  
Ene=    -0.0963
Spin= Alpha
Occup=    0.00000
   1        -0.09869819
   2         0.59054961
   3         0.65960639
   4         0.82114023
   5         0.00000000
   6         0.00000000
   7         0.51280164
   8         0.00000000
   9         0.00000000
  10        -0.00000000
  11        -0.00000000
  12        -0.00000000
  13         0.00000000
  14        -0.00000000
  15        -0.00000000
  16         0.09869819
  17        -0.59054961
  18        -0.65960639
  19         0.82114023
  20         0.00000000
  21         0.00000000
  22         0.51280164
  23        -0.00000000
  24         0.00000000
  25         0.00000000
  26         0.00000000
  27         0.00000000
  28         0.00000000
  29        -0.00000000
  30        -0.00000000
  31         0.03863647
  32         0.04313962
  33         0.03863647
  34         0.04313962
  35        -0.03863647
  36        -0.04313962
  37        -0.03863647
  38        -0.04313962
Sym=    15a  
Ene=     4.1687
Spin= Alpha
Occup=    0.00000
   1        -0.05407585
   2        -0.61344332
   3         5.20389904
   4        -0.28869388
   5        -0.00000000
   6        -0.00000000
   7         3.64794805
   8         0.00000000
   9         0.00000000
  10         0.29249423
  11        -0.11499596
  12        -0.10260642
  13        -0.00000000
  14         0.00000000
  15         0.00000000
  16         0.05407585
  17         0.61344332
  18        -5.20389904
  19        -0.28869388
  20        -0.00000000
  21         0.00000000
  22         3.64794805
  23         0.00000000
  24        -0.00000000
  25        -0.29249423
  26         0.11499596
  27         0.10260642
  28         0.00000000
  29         0.00000000
  30         0.00000000
  31         0.07845193
  32         0.26654370
  33         0.07845193
  34         0.26654370
  35        -0.07845193
  36        -0.26654370
  37        -0.07845193
  38        -0.26654370
Sym=    16a  
Ene=     4.2265
Spin= Alpha
Occup=    0.00000
   1         0.00000000
   2         0.00000000
   3        -0.00000000
   4        -0.00000000
   5         0.42085028
   6        -0.00000000
   7        -0.00000000
   8        -2.95134876
   9         0.00000000
  10        -0.00000000
  11         0.00000000
  12         0.00000000
  13         0.01683034
  14         0.00000000
  15         0.00000000
  16         0.00000000
  17         0.00000000
  18        -0.00000000
  19         0.00000000
  20        -0.42085028
  21         0.00000000
  22        -0.00000000
  23         2.95134876
  24        -0.00000000
  25         0.00000000
  26        -0.00000000
  27         0.00000000
  28         0.01683034
  29        -0.00000000
  30        -0.00000000
  31        -0.25756818
  32         2.08939849
  33         0.25756818
  34        -2.08939849
  35         0.25756818
  36        -2.08939849
  37        -0.25756818
  38         2.08939849
Sym=    17a  
Ene=     4.3358
Spin= Alpha
Occup=    0.00000
   1         0.07763961
   2         0.87708766
   3        -2.74626995
   4        -0.09168464
   5        -0.00000000
   6         0.00000000
   7         0.61849576
   8         0.00000000
   9        -0.00000000
  10         0.21990555
  11         0.18132721
  12         0.25822055
  13        -0.00000000
  14         0.00000000
  15         0.00000000
  16         0.07763961
  17         0.87708766
  18        -2.74626995
  19         0.09168464
  20        -0.00000000
  21         0.00000000
  22        -0.61849576
  23         0.00000000
  24        -0.00000000
  25         0.21990555
  26         0.18132721
  27         0.25822055
  28         0.00000000
  29        -0.00000000
  30        -0.00000000
  31        -0.18178106
  32         1.22637725
  33        -0.18178106
  34         1.22637725
  35        -0.18178106
  36         1.22637725
  37        -0.18178106
  38         1.22637725
Sym=    18a  
Ene=     4.3742
Spin= Alpha
Occup=    0.00000
   1         0.05990022
   2         0.62581257
   3        -2.54145165
   4        -0.20780431
   5         0.00000000
   6         0.00000000
   7         1.04120004
   8        -0.00000000
   9        -0.00000000
  10         0.25554213
  11         0.02964138
  12         0.17562116
  13         0.00000000
  14         0.00000000
  15         0.00000000
  16        -0.05990022
  17        -0.62581257
  18         2.54145165
  19        -0.20780431
  20         0.00000000
  21        -0.00000000
  22         1.04120004
  23        -0.00000000
  24        -0.00000000
  25        -0.25554213
  26        -0.02964138
  27        -0.17562116
  28        -0.00000000
  29         0.00000000
  30         0.00000000
  31        -0.32771914
  32         1.56018311
  33        -0.32771914
  34         1.56018311
  35         0.32771914
  36        -1.56018311
  37         0.32771914
  38        -1.56018311
Sym=    19a  
Ene=     4.3887
Spin= Alpha
Occup=    0.00000
   1         0.00000000
   2         0.00000000
   3        -0.00000000
   4        -0.00000000
   5        -0.12035258
   6         0.00000000
   7         0.00000000
   8         0.74607307
   9        -0.00000000
  10         0.00000000
  11        -0.00000000
  12         0.00000000
  13        -0.13934586
  14        -0.00000000
  15        -0.00000000
  16        -0.00000000
  17        -0.00000000
  18         0.00000000
  19        -0.00000000
  20        -0.12035258
  21        -0.00000000
  22         0.00000000
  23         0.74607307
  24         0.00000000
  25        -0.00000000
  26        -0.00000000
  27        -0.00000000
  28         0.13934586
  29        -0.00000000
  30        -0.00000000
  31         0.47513225
  32        -1.23625184
  33        -0.47513225
  34         1.23625184
  35         0.47513225
  36        -1.23625184
  37        -0.47513225
  38         1.23625184
Sym=    20a  
Ene=     4.4876
Spin= Alpha
Occup=    0.00000
   1        -0.01875665
   2        -0.18020761
   3        -0.44137127
   4        -0.48417026
   5        -0.00000000
   6         0.00000000
   7         0.97190430
   8         0.00000000
   9        -0.00000000
  10        -0.13732449
  11        -0.17666331
  12        -0.03865569
  13         0.00000000
  14        -0.00000000
  15         0.00000000
  16        -0.01875665
  17        -0.18020761
  18        -0.44137127
  19         0.48417026
  20         0.00000000
  21        -0.00000000
  22        -0.97190430
  23        -0.00000000
  24         0.00000000
  25        -0.13732449
  26        -0.17666331
  27        -0.03865569
  28        -0.00000000
  29        -0.00000000
  30        -0.00000000
  31        -0.22135602
  32         0.55663729
  33        -0.22135602
  34         0.55663729
  35        -0.22135602
  36         0.55663729
  37        -0.22135602
  38         0.55663729
Sym=    21a  
Ene=     4.5492
Spin= Alpha
Occup=    0.00000
   1         0.01394135
   2         0.16974033
   3        -0.65839227
   4        -0.32881075
   5         0.00000000
   6        -0.00000000
   7         0.71929505
   8        -0.00000000
   9         0.00000000
  10         0.05020025
  11         0.17186272
  12         0.03419249
  13         0.00000000
  14         0.00000000
  15        -0.00000000
  16         0.01394135
  17         0.16974033
  18        -0.65839227
  19         0.32881075
  20         0.00000000
  21         0.00000000
  22        -0.71929505
  23        -0.00000000
  24        -0.00000000
  25         0.05020025
  26         0.17186272
  27         0.03419249
  28        -0.00000000
  29        -0.00000000
  30        -0.00000000
  31         0.44167900
  32        -0.11423423
  33         0.44167900
  34        -0.11423423
  35         0.44167900
  36        -0.11423423
  37         0.44167900
  38        -0.11423423
Sym=    22a  
Ene=     4.7064
Spin= Alpha
Occup=    0.00000
   1         0.00000000
   2         0.00000000
   3        -0.00000000
   4        -0.00000000
   5        -0.00000000
   6         0.65298192
   7         0.00000000
   8         0.00000000
   9        -1.28350000
  10         0.00000000
  11         0.00000000
  12         0.00000000
  13         0.00000000
  14        -0.11295473
  15         0.00000000
  16        -0.00000000
  17        -0.00000000
  18         0.00000000
  19        -0.00000000
  20        -0.00000000
  21        -0.65298192
  22         0.00000000
  23         0.00000000
  24         1.28350000
  25        -0.00000000
  26        -0.00000000
  27         0.00000000
  28         0.00000000
  29        -0.11295473
  30         0.00000000
  31         0.00000000
  32        -0.00000000
  33         0.00000000
  34        -0.00000000
  35        -0.00000000
  36        -0.00000000
  37        -0.00000000
  38         0.00000000
Sym=    23a  
Ene=     4.7412
Spin= Alpha
Occup=    0.00000
   1         0.08882316
   2         0.87494445
   3        -4.11591955
   4        -0.10783757
   5         0.00000000
   6        -0.00000000
   7        -1.08745784
   8        -0.00000000
   9         0.00000000
  10         0.25579262
  11         0.24874460
  12         0.07764142
  13         0.00000000
  14         0.00000000
  15         0.00000000
  16        -0.08882316
  17        -0.87494445
  18         4.11591955
  19        -0.10783757
  20         0.00000000
  21         0.00000000
  22        -1.08745784
  23        -0.00000000
  24        -0.00000000
  25        -0.25579262
  26        -0.24874460
  27        -0.07764142
  28        -0.00000000
  29         0.00000000
  30         0.00000000
  31         0.42055706
  32         0.06255438
  33         0.42055706
  34         0.06255438
  35        -0.42055706
  36        -0.06255438
  37        -0.42055706
  38        -0.06255438
Sym=    24a  
Ene=     4.8589
Spin= Alpha
Occup=    0.00000
   1         0.00000000
   2         0.00000000
   3        -0.00000000
   4         0.00000000
   5        -0.65401629
   6        -0.00000000
   7        -0.00000000
   8         1.35341750
   9         0.00000000
  10         0.00000000
  11         0.00000000
  12         0.00000000
  13        -0.13050497
  14        -0.00000000
  15        -0.00000000
  16        -0.00000000
  17        -0.00000000
  18         0.00000000
  19        -0.00000000
  20        -0.65401629
  21        -0.00000000
  22        -0.00000000
  23         1.35341750
  24         0.00000000
  25        -0.00000000
  26        -0.00000000
  27        -0.00000000
  28         0.13050497
  29         0.00000000
  30        -0.00000000
  31        -0.19586144
  32        -0.77158738
  33         0.19586144
  34         0.77158738
  35        -0.19586144
  36        -0.77158738
  37         0.19586144
  38         0.77158738
Sym=    25a  
Ene=     4.9014
Spin= Alpha
Occup=    0.00000
   1         0.00000000
   2         0.00000000
   3        -0.00000000
   4        -0.00000000
   5         0.00000000
   6        -0.67413994
   7         0.00000000
   8        -0.00000000
   9         0.63622636
  10         0.00000000
  11         0.00000000
  12         0.00000000
  13         0.00000000
  14        -0.16959658
  15        -0.00000000
  16        -0.00000000
  17        -0.00000000
  18         0.00000000
  19         0.00000000
  20         0.00000000
  21        -0.67413994
  22        -0.00000000
  23        -0.00000000
  24         0.63622636
  25        -0.00000000
  26        -0.00000000
  27         0.00000000
  28        -0.00000000
  29         0.16959658
  30         0.00000000
  31         0.00000000
  32         0.00000000
  33        -0.00000000
  34        -0.00000000
  35         0.00000000
  36         0.00000000
  37        -0.00000000
  38        -0.00000000
Sym=    26a  
Ene=     5.2004
Spin= Alpha
Occup=    0.00000
   1        -0.00000000
   2        -0.00000000
   3         0.00000000
   4         0.00000000
   5         0.43983086
   6        -0.00000000
   7         0.00000000
   8        -3.21433474
   9         0.00000000
  10        -0.00000000
  11        -0.00000000
  12        -0.00000000
  13        -0.17395794
  14        -0.00000000
  15         0.00000000
  16         0.00000000
  17         0.00000000
  18        -0.00000000
  19        -0.00000000
  20        -0.43983086
  21        -0.00000000
  22         0.00000000
  23         3.21433474
  24         0.00000000
  25         0.00000000
  26        -0.00000000
  27         0.00000000
  28        -0.17395794
  29         0.00000000
  30         0.00000000
  31         0.57958780
  32         0.96709943
  33        -0.57958780
  34        -0.96709943
  35        -0.57958780
  36        -0.96709943
  37         0.57958780
  38         0.96709943
Sym=    27a  
Ene=     5.6465
Spin= Alpha
Occup=    0.00000
   1        -0.00000000
   2        -0.00000000
   3        -0.00000000
   4         0.00000000
   5        -0.00000000
   6        -0.00000000
   7        -0.00000000
   8         0.00000000
   9         0.00000000
  10        -0.00000000
  11         0.00000000
  12        -0.00000000
  13        -0.00000000
  14         0.00000000
  15         0.67916786
  16        -0.00000000
  17        -0.00000000
  18        -0.00000000
  19         0.00000000
  20         0.00000000
  21         0.00000000
  22        -0.00000000
  23        -0.00000000
  24        -0.00000000
  25         0.00000000
  26         0.00000000
  27         0.00000000
  28         0.00000000
  29         0.00000000
  30         0.67916786
  31         0.00000000
  32        -0.00000000
  33         0.00000000
  34         0.00000000
  35        -0.00000000
  36         0.00000000
  37        -0.00000000
  38        -0.00000000
Sym=    28a  
Ene=     5.6854
Spin= Alpha
Occup=    0.00000
   1         0.00000000
   2         0.00000000
   3         0.00000000
   4         0.00000000
   5        -0.00000000
   6         0.29537896
   7         0.00000000
   8         0.00000000
   9        -0.16784086
  10        -0.00000000
  11        -0.00000000
  12        -0.00000000
  13        -0.00000000
  14        -0.59728469
  15         0.00000000
  16         0.00000000
  17         0.00000000
  18        -0.00000000
  19        -0.00000000
  20         0.00000000
  21         0.29537896
  22         0.00000000
  23        -0.00000000
  24        -0.16784086
  25         0.00000000
  26        -0.00000000
  27         0.00000000
  28         0.00000000
  29         0.59728469
  30        -0.00000000
  31        -0.00000000
  32        -0.00000000
  33         0.00000000
  34        -0.00000000
  35         0.00000000
  36         0.00000000
  37         0.00000000
  38        -0.00000000
Sym=    29a  
Ene=     5.9817
Spin= Alpha
Occup=    0.00000
   1         0.00000000
   2         0.00000000
   3        -0.00000000
   4        -0.00000000
   5         0.00000000
   6        -0.00000000
   7         0.00000000