[Molden Format]
[N_Atoms]
                    2
[Atoms] (AU)
N1          1      7           0.00000000      0.00000000      0.00000000
N2          2      7          14.73986377      0.00000000      0.00000000
[Charge] (Mulliken)
   0.0000000000000000     
   0.0000000000000000     
[GTO] (AU)
   1
   s   6
  4.173511460E+03  1.834772160E-03
  6.274579110E+02  1.399462700E-02
  1.429020930E+02  6.858655181E-02
  4.023432930E+01  2.322408730E-01
  1.282021290E+01  4.690699481E-01
  4.390437010E+00  3.604551991E-01
   s   3
  1.162636186E+01 -1.149611817E-01
  2.716279807E+00 -1.691174786E-01
  7.722183966E-01  1.145851947E+00
   s   1
  2.120314975E-01  1.000000000E+00
   p   3
  1.162636186E+01  6.757974388E-02
  2.716279807E+00  3.239072959E-01
  7.722183966E-01  7.408951398E-01
   p   1
  2.120314975E-01  1.000000000E+00
   d   1
  8.000000000E-01  1.000000000E+00
 
   2
   s   6
  4.173511460E+03  1.834772160E-03
  6.274579110E+02  1.399462700E-02
  1.429020930E+02  6.858655181E-02
  4.023432930E+01  2.322408730E-01
  1.282021290E+01  4.690699481E-01
  4.390437010E+00  3.604551991E-01
   s   3
  1.162636186E+01 -1.149611817E-01
  2.716279807E+00 -1.691174786E-01
  7.722183966E-01  1.145851947E+00
   s   1
  2.120314975E-01  1.000000000E+00
   p   3
  1.162636186E+01  6.757974388E-02
  2.716279807E+00  3.239072959E-01
  7.722183966E-01  7.408951398E-01
   p   1
  2.120314975E-01  1.000000000E+00
   d   1
  8.000000000E-01  1.000000000E+00
 
[MO]
Sym=     1a  
Ene=   -15.6340
Spin= Alpha
Occup=    2.00000
   1         0.33289533
   2         0.00662693
   3         0.00058950
   4         0.00000000
   5         0.00000000
   6        -0.00000000
   7         0.00000000
   8        -0.00000000
   9        -0.00000000
  10         0.00000000
  11         0.00000000
  12        -0.00000000
  13        -0.00000000
  14         0.00000000
  15        -0.00000000
  16         0.93774616
  17         0.01866767
  18         0.00166060
  19        -0.00000000
  20        -0.00000000
  21        -0.00000000
  22        -0.00000000
  23         0.00000000
  24         0.00000000
  25        -0.00000000
  26        -0.00000000
  27        -0.00000000
  28         0.00000000
  29        -0.00000000
  30         0.00000000
Sym=     2a  
Ene=   -15.6340
Spin= Alpha
Occup=    2.00000
   1        -0.93774616
   2        -0.01866767
   3        -0.00166060
   4         0.00000000
   5        -0.00000000
   6         0.00000000
   7         0.00000000
   8         0.00000000
   9        -0.00000000
  10        -0.00000000
  11        -0.00000000
  12        -0.00000000
  13        -0.00000000
  14         0.00000000
  15        -0.00000000
  16         0.33289533
  17         0.00662693
  18         0.00058950
  19         0.00000000
  20         0.00000000
  21         0.00000000
  22         0.00000000
  23         0.00000000
  24        -0.00000000
  25        -0.00000000
  26        -0.00000000
  27        -0.00000000
  28         0.00000000
  29        -0.00000000
  30        -0.00000000
Sym=     3a  
Ene=    -0.9450
Spin= Alpha
Occup=    2.00000
   1        -0.16455551
   2         0.37271767
   3         0.39443108
   4         0.00000000
   5         0.00000000
   6         0.00000000
   7         0.00000000
   8        -0.00000000
   9        -0.00000000
  10         0.00000000
  11         0.00000000
  12         0.00000000
  13        -0.00000000
  14        -0.00000000
  15        -0.00000000
  16        -0.16454868
  17         0.37270220
  18         0.39441471
  19        -0.00000000
  20         0.00000000
  21         0.00000000
  22        -0.00000000
  23         0.00000000
  24        -0.00000000
  25         0.00000000
  26         0.00000000
  27         0.00000000
  28        -0.00000000
  29         0.00000000
  30         0.00000000
Sym=     4a  
Ene=    -0.9450
Spin= Alpha
Occup=    2.00000
   1         0.16454868
   2        -0.37270220
   3        -0.39441471
   4         0.00000000
   5        -0.00000000
   6         0.00000000
   7         0.00000000
   8        -0.00000000
   9         0.00000000
  10        -0.00000000
  11        -0.00000000
  12        -0.00000000
  13        -0.00000000
  14        -0.00000000
  15        -0.00000000
  16        -0.16455551
  17         0.37271767
  18         0.39443108
  19         0.00000000
  20        -0.00000000
  21        -0.00000000
  22         0.00000000
  23        -0.00000000
  24         0.00000000
  25         0.00000000
  26         0.00000000
  27         0.00000000
  28        -0.00000000
  29         0.00000000
  30         0.00000000
Sym=     5a  
Ene=    -0.5703
Spin= Alpha
Occup=    1.00000
   1        -0.00000000
   2         0.00000000
   3         0.00000000
   4        -0.50773279
   5        -0.00000000
   6         0.00000001
   7        -0.29466013
   8        -0.00000000
   9         0.00000000
  10        -0.00000000
  11        -0.00000000
  12        -0.00000000
  13         0.00000000
  14        -0.00000000
  15         0.00000000
  16        -0.00000000
  17         0.00000000
  18         0.00000000
  19         0.50773345
  20         0.00000005
  21         0.00000003
  22         0.29466051
  23         0.00000003
  24         0.00000001
  25        -0.00000000
  26         0.00000000
  27         0.00000000
  28         0.00000000
  29         0.00000000
  30         0.00000000
Sym=     6a  
Ene=    -0.5703
Spin= Alpha
Occup=    1.00000
   1         0.00000000
   2        -0.00000000
   3        -0.00000000
   4        -0.00000007
   5        -0.07627800
   6         0.50196809
   7        -0.00000004
   8        -0.04426755
   9         0.29131461
  10        -0.00000000
  11         0.00000000
  12         0.00000000
  13         0.00000000
  14         0.00000000
  15         0.00000000
  16        -0.00000000
  17         0.00000000
  18         0.00000000
  19        -0.00000009
  20        -0.07628093
  21         0.50197287
  22        -0.00000005
  23        -0.04426925
  24         0.29131739
  25        -0.00000000
  26        -0.00000000
  27         0.00000000
  28        -0.00000000
  29        -0.00000000
  30         0.00000000
Sym=     7a  
Ene=    -0.5703
Spin= Alpha
Occup=    1.00000
   1        -0.00000000
   2         0.00000000
   3         0.00000000
   4         0.00000015
   5         0.50201975
   6         0.07628042
   7         0.00000009
   8         0.29134459
   9         0.04426895
  10        -0.00000000
  11        -0.00000000
  12        -0.00000000
  13        -0.00000000
  14        -0.00000000
  15        -0.00000000
  16         0.00000000
  17        -0.00000000
  18         0.00000000
  19         0.00000010
  20         0.50192121
  21         0.07627851
  22         0.00000006
  23         0.29128740
  24         0.04426784
  25        -0.00000000
  26         0.00000000
  27         0.00000000
  28         0.00000000
  29         0.00000000
  30        -0.00000000
Sym=     8a  
Ene=    -0.5703
Spin= Alpha
Occup=    1.00000
   1        -0.00000000
   2        -0.00000000
   3         0.00000000
   4         0.00000010
   5        -0.39565911
   6         0.31815531
   7         0.00000006
   8        -0.22961874
   9         0.18463980
  10        -0.00000000
  11         0.00000000
  12        -0.00000000
  13        -0.00000000
  14        -0.00000000
  15         0.00000000
  16         0.00000000
  17        -0.00000000
  18         0.00000000
  19         0.00000007
  20         0.39573306
  21        -0.31813874
  22         0.00000004
  23         0.22966166
  24        -0.18463019
  25         0.00000000
  26         0.00000000
  27        -0.00000000
  28         0.00000000
  29         0.00000000
  30        -0.00000000
Sym=     9a  
Ene=    -0.5703
Spin= Alpha
Occup=    1.00000
   1        -0.00000000
   2         0.00000000
   3         0.00000000
   4         0.00000005
   5        -0.31811562
   6        -0.39569227
   7         0.00000003
   8        -0.18461677
   9        -0.22963798
  10        -0.00000000
  11        -0.00000000
  12        -0.00000000
  13        -0.00000000
  14         0.00000000
  15         0.00000000
  16         0.00000000
  17        -0.00000000
  18        -0.00000000
  19         0.00000001
  20         0.31817843
  21         0.39569990
  22         0.00000000
  23         0.18465322
  24         0.22964241
  25         0.00000000
  26         0.00000000
  27        -0.00000000
  28         0.00000000
  29         0.00000000
  30         0.00000000
Sym=    10a  
Ene=    -0.5703
Spin= Alpha
Occup=    1.00000
   1        -0.00000000
   2         0.00000000
   3         0.00000000
   4         0.50773345
   5        -0.00000005
   6         0.00000003
   7         0.29466051
   8        -0.00000003
   9         0.00000002
  10         0.00000000
  11         0.00000000
  12         0.00000000
  13        -0.00000000
  14        -0.00000000
  15         0.00000000
  16         0.00000000
  17        -0.00000000
  18        -0.00000000
  19         0.50773279
  20        -0.00000022
  21         0.00000009
  22         0.29466013
  23        -0.00000013
  24         0.00000005
  25        -0.00000000
  26         0.00000000
  27         0.00000000
  28         0.00000000
  29         0.00000000
  30         0.00000000
Sym=    11a  
Ene=     4.3454
Spin= Alpha
Occup=    0.00000
   1         0.05675170
   2         0.59936690
   3        -1.47467372
   4         0.00000000
   5        -0.00000000
   6        -0.00000000
   7        -0.00000001
   8         0.00000000
   9         0.00000000
  10         0.39351882
  11         0.39351882
  12         0.39351882
  13         0.00000000
  14        -0.00000000
  15        -0.00000000
  16         0.05675148
  17         0.59936458
  18        -1.47466800
  19        -0.00000000
  20        -0.00000000
  21         0.00000000
  22         0.00000001
  23         0.00000000
  24        -0.00000000
  25         0.39351729
  26         0.39351729
  27         0.39351729
  28        -0.00000000
  29         0.00000000
  30        -0.00000000
Sym=    12a  
Ene=     4.3454
Spin= Alpha
Occup=    0.00000
   1         0.05675148
   2         0.59936458
   3        -1.47466800
   4        -0.00000000
   5         0.00000000
   6         0.00000000
   7         0.00000001
   8        -0.00000000
   9        -0.00000000
  10         0.39351729
  11         0.39351729
  12         0.39351729
  13        -0.00000000
  14         0.00000000
  15        -0.00000000
  16        -0.05675170
  17        -0.59936690
  18         1.47467372
  19        -0.00000000
  20        -0.00000000
  21        -0.00000000
  22         0.00000001
  23         0.00000000
  24         0.00000000
  25        -0.39351882
  26        -0.39351882
  27        -0.39351882
  28        -0.00000000
  29        -0.00000000
  30        -0.00000000
Sym=    13a  
Ene=     5.4147
Spin= Alpha
Occup=    0.00000
   1        -0.00000000
   2        -0.00000001
   3         0.00000001
   4         0.65332002
   5        -0.00000001
   6         0.00000000
   7        -0.77317220
   8         0.00000001
   9        -0.00000000
  10        -0.00000000
  11        -0.00000000
  12        -0.00000000
  13         0.00000000
  14         0.00000000
  15        -0.00000000
  16        -0.00000000
  17        -0.00000001
  18         0.00000001
  19        -0.65332011
  20        -0.00000002
  21        -0.00000000
  22         0.77317230
  23         0.00000002
  24         0.00000000
  25        -0.00000000
  26        -0.00000000
  27        -0.00000000
  28        -0.00000000
  29        -0.00000000
  30        -0.00000000
Sym=    14a  
Ene=     5.4147
Spin= Alpha
Occup=    0.00000
   1        -0.00000000
   2         0.00000000
   3        -0.00000000
   4         0.00000000
   5         0.00004903
   6        -0.65331971
   7        -0.00000000
   8        -0.00005803
   9         0.77317183
  10         0.00000000
  11         0.00000000
  12        -0.00000000
  13        -0.00000000
  14         0.00000000
  15        -0.00000000
  16         0.00000000
  17        -0.00000000
  18         0.00000000
  19         0.00000000
  20         0.00004949
  21        -0.65332042
  22        -0.00000000
  23        -0.00005857
  24         0.77317267
  25         0.00000000
  26         0.00000000
  27        -0.00000000
  28        -0.00000000
  29        -0.00000000
  30        -0.00000000
Sym=    15a  
Ene=     5.4147
Spin= Alpha
Occup=    0.00000
   1         0.00000000
   2         0.00000000
   3         0.00000000
   4        -0.00000002
   5        -0.65087551
   6        -0.00004932
   7         0.00000002
   8         0.77027924
   9         0.00005837
  10         0.00000000
  11        -0.00000000
  12         0.00000000
  13         0.00000000
  14         0.00000000
  15         0.00000000
  16        -0.00000000
  17         0.00000000
  18        -0.00000000
  19         0.00000000
  20        -0.65575550
  21        -0.00004921
  22        -0.00000000
  23         0.77605447
  24         0.00005823
  25         0.00000000
  26         0.00000000
  27        -0.00000000
  28        -0.00000000
  29        -0.00000000
  30         0.00000000
Sym=    16a  
Ene=     5.4147
Spin= Alpha
Occup=    0.00000
   1         0.00000000
   2        -0.00000000
   3         0.00000000
   4        -0.00000001
   5         0.65575550
   6        -0.00005876
   7         0.00000002
   8        -0.77605447
   9         0.00006954
  10         0.00000000
  11        -0.00000000
  12        -0.00000000
  13         0.00000000
  14        -0.00000000
  15        -0.00000000
  16         0.00000000
  17         0.00000000
  18        -0.00000000
  19        -0.00000000
  20        -0.65087551
  21         0.00005867
  22         0.00000000
  23         0.77027924
  24        -0.00006943
  25         0.00000000
  26        -0.00000000
  27         0.00000000
  28         0.00000000
  29        -0.00000000
  30        -0.00000000
Sym=    17a  
Ene=     5.4147
Spin= Alpha
Occup=    0.00000
   1        -0.00000000
   2        -0.00000000
   3         0.00000000
   4        -0.00000001
   5         0.00005888
   6         0.65332042
   7         0.00000001
   8        -0.00006968
   9        -0.77317267
  10         0.00000000
  11         0.00000000
  12        -0.00000000
  13        -0.00000000
  14         0.00000000
  15        -0.00000000
  16         0.00000000
  17         0.00000000
  18        -0.00000000
  19        -0.00000000
  20        -0.00005855
  21        -0.65331970
  22         0.00000000
  23         0.00006929
  24         0.77317182
  25         0.00000000
  26         0.00000000
  27        -0.00000000
  28        -0.00000000
  29         0.00000000
  30        -0.00000000
Sym=    18a  
Ene=     5.4147
Spin= Alpha
Occup=    0.00000
   1        -0.00000000
   2        -0.00000001
   3         0.00000001
   4        -0.65332011
   5         0.00000000
   6        -0.00000001
   7         0.77317230
   8        -0.00000000
   9         0.00000001
  10        -0.00000000
  11        -0.00000000
  12        -0.00000000
  13        -0.00000000
  14         0.00000000
  15        -0.00000000
  16         0.00000000
  17         0.00000001
  18        -0.00000001
  19        -0.65332002
  20         0.00000002
  21         0.00000000
  22         0.77317220
  23        -0.00000002
  24        -0.00000000
  25         0.00000000
  26         0.00000000
  27         0.00000000
  28        -0.00000000
  29        -0.00000000
  30        -0.00000000
Sym=    19a  
Ene=     5.8000
Spin= Alpha
Occup=    0.00000
   1        -0.00000000
   2        -0.00000000
   3         0.00000000
   4        -0.00000000
   5         0.00000000
   6        -0.00000000
   7         0.00000000
   8        -0.00000000
   9         0.00000000
  10         0.00031219
  11         0.00052564
  12        -0.00083782
  13         0.00000000
  14         0.16442560
  15         0.53082685
  16         0.00000000
  17         0.00000000
  18         0.00000000
  19        -0.00000000
  20        -0.00000000
  21         0.00000000
  22         0.00000000
  23         0.00000000
  24        -0.00000000
  25        -0.01233581
  26         0.00515402
  27         0.00718179
  28        -0.53444521
  29         0.57796763
  30        -0.26712273
Sym=    20a  
Ene=     5.8000
Spin= Alpha
Occup=    0.00000
   1         0.00000000
   2         0.00000000
   3        -0.00000000
   4         0.00000000
   5        -0.00000000
   6        -0.00000000
   7        -0.00000000
   8         0.00000000
   9         0.00000000
  10        -0.01797374
  11         0.04920275
  12        -0.03122901
  13        -0.00000000
  14        -0.12470374
  15         0.30349630
  16        -0.00000000
  17        -0.00000000
  18         0.00000000
  19         0.00000000
  20        -0.00000000
  21        -0.00000000
  22        -0.00000000
  23         0.00000000
  24         0.00000000
  25         0.01176571
  26         0.02398372
  27        -0.03574944
  28         0.79367978
  29         0.50729497
  30         0.03543928
Sym=    21a  
Ene=     5.8000
Spin= Alpha
Occup=    0.00000
   1        -0.00000000
   2        -0.00000000
   3         0.00000000
   4        -0.00000000
   5         0.00000000
   6        -0.00000000
   7         0.00000000
   8        -0.00000000
   9         0.00000000
  10         0.00028627
  11         0.00013077
  12        -0.00041704
  13        -0.00000000
  14         0.12199208
  15         0.01652431
  16         0.00000000
  17         0.00000000
  18         0.00000000
  19        -0.00000000
  20        -0.00000000
  21         0.00000000
  22         0.00000000
  23         0.00000000
  24        -0.00000000
  25        -0.00352997
  26        -0.00147565
  27         0.00500562
  28        -0.17477433
  29         0.22749293
  30         0.95001007
Sym=    22a  
Ene=     5.8000
Spin= Alpha
Occup=    0.00000
   1         0.00000000
   2         0.00000000
   3        -0.00000000
   4         0.00000000
   5        -0.00000000
   6        -0.00000000
   7        -0.00000000
   8         0.00000000
   9         0.00000000
  10         0.06619505
  11         0.01398629
  12        -0.08018134
  13        -0.00000000
  14        -0.01697151
  15         0.01528400
  16         0.00000000
  17         0.00000000
  18        -0.00000000
  19        -0.00000000
  20         0.00000000
  21        -0.00000000
  22         0.00000000
  23        -0.00000000
  24         0.00000000
  25         0.46477651
  26        -0.99517888
  27         0.53040237
  28         0.01381270
  29         0.01154733
  30        -0.00009094
Sym=    23a  
Ene=     5.8000
Spin= Alpha
Occup=    0.00000
   1        -0.00000000
   2        -0.00000000
   3         0.00000000
   4        -0.00000000
   5        -0.00000000
   6         0.00000000
   7         0.00000000
   8         0.00000000
   9        -0.00000000
  10         0.00008174
  11        -0.00647066
  12         0.00638892
  13         0.00000000
  14        -0.04065024
  15         0.79063866
  16        -0.00000000
  17        -0.00000000
  18        -0.00000000
  19         0.00000000
  20         0.00000000
  21        -0.00000000
  22        -0.00000000
  23        -0.00000000
  24         0.00000000
  25        -0.00763707
  26         0.00663138
  27         0.00100569
  28         0.06250873
  29        -0.59024183
  30         0.14429588
Sym=    24a  
Ene=     5.8000
Spin= Alpha
Occup=    0.00000
   1        -0.00000000
   2        -0.00000000
   3         0.00000000
   4        -0.00000000
   5        -0.00000000
   6        -0.00000000
   7         0.00000000
   8         0.00000000
   9         0.00000000
  10         0.02212490
  11        -0.00339834
  12        -0.01872656
  13        -0.00000000
  14         0.03160383
  15        -0.00298721
  16         0.00000000
  17        -0.00000000
  18        -0.00000000
  19        -0.00000000
  20         0.00000000
  21        -0.00000000
  22         0.00000000
  23        -0.00000000
  24         0.00000000
  25        -0.88402975
  26         0.03992108
  27         0.84410867
  28         0.03603744
  29         0.00548166
  30        -0.00381237
Sym=    25a  
Ene=     5.8000
Spin= Alpha
Occup=    0.00000
   1         0.00000000
   2         0.00000000
   3        -0.00000000
   4         0.00000000
   5        -0.00000000
   6         0.00000000
   7        -0.00000000
   8         0.00000000
   9        -0.00000000
  10         0.00723109
  11         0.00057394
  12        -0.00780504
  13         0.00000000
  14         0.96928350
  15        -0.01950463
  16        -0.00000000
  17         0.00000000
  18        -0.00000000
  19        -0.00000000
  20        -0.00000000
  21         0.00000000
  22         0.00000000
  23         0.00000000
  24        -0.00000000
  25         0.04061174
  26        -0.01551443
  27        -0.02509731
  28         0.21661039
  29        -0.08602294
  30        -0.06350944
Sym=    26a  
Ene=     5.8000
Spin= Alpha
Occup=    0.00000
   1        -0.00000000
   2         0.00000000
   3        -0.00000000
   4         0.00000000
   5        -0.00000000
   6        -0.00000000
   7        -0.00000000
   8         0.00000000
   9         0.00000000
  10         0.45675644
  11        -0.99740764
  12         0.54065120
  13         0.00000000
  14        -0.00520337
  15         0.01035542
  16         0.00000000
  17         0.00000000
  18        -0.00000000
  19        -0.00000000
  20         0.00000000
  21        -0.00000000
  22         0.00000000
  23        -0.00000000
  24         0.00000000
  25         0.01110184
  26        -0.01711065
  27         0.00600881
  28         0.03901305
  29         0.02955676
  30         0.00073423
Sym=    27a  
Ene=     5.8000
Spin= Alpha
Occup=    0.00000
   1         0.00000000
   2        -0.00000000
   3        -0.00000000
   4         0.00000000
   5         0.00000000
   6        -0.00000000
   7        -0.00000000
   8        -0.00000000
   9         0.00000000
  10        -0.88663788
  11         0.05007426
  12         0.83656362
  13        -0.00000000
  14         0.00736764
  15         0.00035483
  16        -0.00000000
  17        -0.00000000
  18         0.00000000
  19         0.00000000
  20        -0.00000000
  21        -0.00000000
  22        -0.00000000
  23         0.00000000
  24         0.00000000
  25         0.01844539
  26        -0.08272780
  27         0.06428241
  28         0.00746673
  29         0.00546242
  30        -0.00073408
Sym=    28a  
Ene=     5.8000
Spin= Alpha
Occup=    0.00000
   1         0.00000000
   2        -0.00000000
   3        -0.00000000
   4         0.00000000
   5        -0.00000000
   6         0.00000000
   7         0.00000000
   8         0.00000000
   9         0.00000000
  10        -0.00000000
  11         0.00000000
  12        -0.00000000
  13         1.00000000
  14        -0.00000000
  15         0.00000000
  16         0.00000000
  17         0.00000000
  18         0.00000000
  19        -0.00000000
  20         0.00000000
  21        -0.00000000
  22        -0.00000000
  23        -0.00000000
  24         0.00000000
  25         0.00000000
  26        -0.00000000
  27         0.00000000
  28         0.00000000
  29         0.00000000
  30         0.00000000
Sym=    29a  
Ene=    11.9160
Spin= Alpha
Occup=    0.00000
   1         0.26834460
   2        -1.24516626
   3        -0.68550297
   4        -0.00000000
   5        -0.00000000
   6        -0.00000000
   7         0.00000000
   8         0.00000000
   9        -0.00000000
  10         0.84650063
  11         0.84650063
  12         0.84650063
  13         0.00000000
  14        -0.00000000
  15        -0.00000000
  16         0.26834311
  17        -1.24515934
  18        -0.68549916
  19         0.00000000
  20         0.00000000
  21         0.00000000
  22        -0.00000000
  23         0.00000000
  24        -0.00000000
  25         0.84649593
  26         0.84649593
  27         0.84649593
  28        -0.00000000
  29         0.00000000
  30        -0.00000000
Sym=    30a  
Ene=    11.9160
Spin= Alpha
Occup=    0.00000
   1         0.26834311
   2        -1.24515934
   3        -0.68549917
   4         0.00000000
   5        -0.00000000
   6        -0.00000000
   7        -0.00000000
   8         0.00000000
   9        -0.00000000
  10         0.84649593
  11         0.84649593
  12         0.84649593
  13        -0.00000000
  14         0.00000000
  15        -0.00000000
  16        -0.26834460
  17         1.24516626
  18         0.68550298
  19         0.00000000
  20         0.00000000
  21         0.00000000
  22        -0.00000000
  23         0.00000000
  24        -0.00000000
  25        -0.84650064
  26        -0.84650064
  27        -0.84650064
  28         0.00000000
  29        -0.00000000
  30        -0.00000000
