[Molden Format]
[N_Atoms]
                    2
[Atoms] (AU)
N1          1      7           0.00000000      0.00000000      0.00000000
N2          2      7          14.55089116      0.00000000      0.00000000
[Charge] (Mulliken)
  -3.7996600870116026E-006
   3.7996600541490011E-006
[GTO] (AU)
   1
   s   6
  4.173511460E+03  1.834772160E-03
  6.274579110E+02  1.399462700E-02
  1.429020930E+02  6.858655181E-02
  4.023432930E+01  2.322408730E-01
  1.282021290E+01  4.690699481E-01
  4.390437010E+00  3.604551991E-01
   s   3
  1.162636186E+01 -1.149611817E-01
  2.716279807E+00 -1.691174786E-01
  7.722183966E-01  1.145851947E+00
   s   1
  2.120314975E-01  1.000000000E+00
   p   3
  1.162636186E+01  6.757974388E-02
  2.716279807E+00  3.239072959E-01
  7.722183966E-01  7.408951398E-01
   p   1
  2.120314975E-01  1.000000000E+00
   d   1
  8.000000000E-01  1.000000000E+00
 
   2
   s   6
  4.173511460E+03  1.834772160E-03
  6.274579110E+02  1.399462700E-02
  1.429020930E+02  6.858655181E-02
  4.023432930E+01  2.322408730E-01
  1.282021290E+01  4.690699481E-01
  4.390437010E+00  3.604551991E-01
   s   3
  1.162636186E+01 -1.149611817E-01
  2.716279807E+00 -1.691174786E-01
  7.722183966E-01  1.145851947E+00
   s   1
  2.120314975E-01  1.000000000E+00
   p   3
  1.162636186E+01  6.757974388E-02
  2.716279807E+00  3.239072959E-01
  7.722183966E-01  7.408951398E-01
   p   1
  2.120314975E-01  1.000000000E+00
   d   1
  8.000000000E-01  1.000000000E+00
 
[MO]
Sym=     1a  
Ene=     0.0000
Spin= Alpha
Occup=   35.91629
   1        -0.00000000
   2        -0.00000000
   3         0.00000000
   4        -0.00000001
   5         0.32098481
   6        -0.32713641
   7        -0.00000000
   8         0.24563614
   9        -0.25034368
  10         0.00000000
  11         0.00000000
  12        -0.00000000
  13        -0.00034019
  14         0.00034671
  15        -0.00000000
  16        -0.00000000
  17        -0.00000000
  18         0.00000000
  19         0.00000001
  20        -0.32098184
  21         0.32713325
  22         0.00000000
  23        -0.24563472
  24         0.25034217
  25         0.00000000
  26         0.00000000
  27        -0.00000000
  28        -0.00034017
  29         0.00034669
  30        -0.00000000
Sym=     2a  
Ene=     0.0000
Spin= Alpha
Occup=   35.91629
   1        -0.00000007
   2        -0.00000093
   3         0.00000173
   4        -0.00003666
   5        -0.32713851
   6        -0.32098700
   7        -0.00001436
   8        -0.25034476
   9        -0.24563726
  10         0.00000023
  11        -0.00000040
  12        -0.00000040
  13         0.00034673
  14         0.00034021
  15        -0.00000000
  16        -0.00000007
  17        -0.00000093
  18         0.00000173
  19         0.00003648
  20         0.32713115
  21         0.32097965
  22         0.00001422
  23         0.25034109
  24         0.24563359
  25         0.00000023
  26        -0.00000040
  27        -0.00000040
  28         0.00034667
  29         0.00034015
  30        -0.00000000
Sym=     3a  
Ene=     0.0000
Spin= Alpha
Occup=   35.31527
   1        -0.00271227
   2         0.00723668
   3         0.00514505
   4         0.45859966
   5         0.00004904
   6         0.00004814
   7         0.35027565
   8         0.00002811
   9         0.00002759
  10        -0.00030884
  11         0.00055235
  12         0.00055235
  13        -0.00000031
  14        -0.00000031
  15         0.00000000
  16         0.00271227
  17        -0.00723701
  18        -0.00514455
  19         0.45861466
  20         0.00004917
  21         0.00004827
  22         0.35028342
  23         0.00002821
  24         0.00002769
  25         0.00030891
  26        -0.00055247
  27        -0.00055247
  28         0.00000031
  29         0.00000031
  30         0.00000000
Sym=     4a  
Ene=     0.0000
Spin= Alpha
Occup=    2.09139
   1         0.16919917
   2        -0.08980118
   3        -0.60658123
   4         0.00338411
   5         0.00000458
   6         0.00000450
   7         0.01001941
   8        -0.00000156
   9        -0.00000154
  10        -0.01946013
  11        -0.01816959
  12        -0.01816960
  13        -0.00001008
  14        -0.00000990
  15        -0.00000040
  16        -0.16928067
  17         0.08984652
  18         0.60686961
  19         0.00338122
  20         0.00000458
  21         0.00000450
  22         0.01002335
  23        -0.00000156
  24        -0.00000154
  25         0.01947296
  26         0.01817781
  27         0.01817780
  28         0.00001009
  29         0.00000990
  30        -0.00000040
Sym=     5a  
Ene=     0.0000
Spin= Alpha
Occup=    2.08681
   1        -0.17104862
   2         0.09868529
   3         0.59501003
   4         0.00952183
   5         0.00000025
   6         0.00000025
   7        -0.00958613
   8         0.00000008
   9         0.00000007
  10         0.01995475
  11         0.02114054
  12         0.02114055
  13         0.00000992
  14         0.00000974
  15         0.00000041
  16        -0.17096650
  17         0.09864014
  18         0.59472026
  19        -0.00952345
  20        -0.00000026
  21        -0.00000025
  22         0.00958124
  23        -0.00000008
  24        -0.00000007
  25         0.01994861
  26         0.02112991
  27         0.02112990
  28         0.00000992
  29         0.00000974
  30        -0.00000041
Sym=     6a  
Ene=     0.0000
Spin= Alpha
Occup=    1.99994
   1        -0.69414659
   2        -0.03195880
   3        -0.03037203
   4         0.00083703
   5         0.00000019
   6         0.00000019
   7        -0.00023307
   8        -0.00000003
   9        -0.00000003
  10         0.00635218
  11         0.00644426
  12         0.00644425
  13        -0.00000277
  14        -0.00000272
  15        -0.00000011
  16         0.69457833
  17         0.03197898
  18         0.03039083
  19         0.00083720
  20         0.00000019
  21         0.00000019
  22        -0.00023323
  23        -0.00000003
  24        -0.00000003
  25        -0.00635518
  26        -0.00644863
  27        -0.00644864
  28         0.00000278
  29         0.00000273
  30        -0.00000011
Sym=     7a  
Ene=     0.0000
Spin= Alpha
Occup=    1.99994
   1         0.69421134
   2         0.03274700
   3         0.03084065
   4        -0.00015151
   5         0.00000006
   6         0.00000006
   7         0.00021471
   8        -0.00000005
   9        -0.00000005
  10        -0.00629301
  11        -0.00622061
  12        -0.00622061
  13         0.00000279
  14         0.00000274
  15         0.00000011
  16         0.69377967
  17         0.03272695
  18         0.03082134
  19         0.00015097
  20        -0.00000006
  21        -0.00000006
  22        -0.00021456
  23         0.00000005
  24         0.00000005
  25        -0.00628814
  26        -0.00621711
  27        -0.00621711
  28         0.00000279
  29         0.00000273
  30        -0.00000011
Sym=     8a  
Ene=     0.0000
Spin= Alpha
Occup=    0.03866
   1         0.00303101
   2         0.07123795
   3        -0.14071315
   4         0.71054503
   5         0.00008911
   6         0.00008746
   7        -0.71846627
   8        -0.00010592
   9        -0.00010396
  10        -0.02941536
  11         0.06571130
  12         0.06571130
  13         0.00000826
  14         0.00000810
  15         0.00000023
  16         0.00303140
  17         0.07123009
  18        -0.14070379
  19        -0.71056191
  20        -0.00008859
  21        -0.00008695
  22         0.71848867
  23         0.00010539
  24         0.00010344
  25        -0.02941214
  26         0.06570867
  27         0.06570866
  28         0.00000830
  29         0.00000814
  30        -0.00000023
Sym=     9a  
Ene=     0.0000
Spin= Alpha
Occup=    0.03611
   1        -0.00000000
   2         0.00000000
   3        -0.00000000
   4        -0.00000001
   5         0.50011188
   6        -0.50955754
   7         0.00000001
   8        -0.50699987
   9         0.51657565
  10        -0.00000000
  11         0.00000167
  12        -0.00000167
  13        -0.03881550
  14         0.03954860
  15        -0.00000004
  16         0.00000000
  17        -0.00000000
  18         0.00000000
  19        -0.00000001
  20         0.50010666
  21        -0.50955204
  22         0.00000001
  23        -0.50699334
  24         0.51656876
  25         0.00000000
  26        -0.00000167
  27         0.00000167
  28         0.03881533
  29        -0.03954844
  30         0.00000004
Sym=    10a  
Ene=     0.0000
Spin= Alpha
Occup=    0.03611
   1        -0.00000109
   2         0.00002722
   3        -0.00003459
   4        -0.00001067
   5        -0.50956050
   6        -0.50011497
   7         0.00002752
   8         0.51657944
   9         0.50700382
  10        -0.00000286
  11         0.00000649
  12         0.00000655
  13         0.03954844
  14         0.03881533
  15        -0.00000193
  16         0.00000110
  17        -0.00002715
  18         0.00003445
  19        -0.00001140
  20        -0.50954907
  21        -0.50010357
  22         0.00002826
  23         0.51656497
  24         0.50698939
  25         0.00000283
  26        -0.00000642
  27        -0.00000648
  28        -0.03954860
  29        -0.03881550
  30         0.00000193
Sym=    11a  
Ene=     0.0000
Spin= Alpha
Occup=    0.00648
   1        -0.00000000
   2         0.00000000
   3        -0.00000000
   4         0.00000000
   5        -0.48257082
   6         0.49160394
   7        -0.00000000
   8         0.52495937
   9        -0.53478595
  10         0.00000000
  11        -0.00000011
  12         0.00000011
  13        -0.00326862
  14         0.00332985
  15         0.00000000
  16        -0.00000000
  17         0.00000000
  18        -0.00000000
  19        -0.00000002
  20         0.48257644
  21        -0.49160986
  22         0.00000002
  23        -0.52496530
  24         0.53479220
  25         0.00000000
  26        -0.00000011
  27         0.00000011
  28        -0.00326633
  29         0.00332744
  30         0.00000000
Sym=    12a  
Ene=     0.0000
Spin= Alpha
Occup=    0.00648
   1        -0.00000272
   2        -0.00000427
   3         0.00003154
   4        -0.00012858
   5         0.49160070
   6         0.48256744
   7         0.00013539
   8        -0.53478253
   9        -0.52495580
  10         0.00002385
  11        -0.00003056
  12        -0.00003056
  13         0.00333120
  14         0.00327003
  15         0.00000013
  16        -0.00000271
  17        -0.00000442
  18         0.00003171
  19         0.00013250
  20        -0.49161309
  21        -0.48257980
  22        -0.00013966
  23         0.53479561
  24         0.52496885
  25         0.00002381
  26        -0.00003055
  27        -0.00003055
  28         0.00332608
  29         0.00326492
  30         0.00000013
Sym=    13a  
Ene=     0.0000
Spin= Alpha
Occup=    0.00647
   1         0.00094050
   2        -0.02756058
   3         0.02836755
   4        -0.68838205
   5         0.00001266
   6         0.00001243
   7         0.74932586
   8        -0.00001380
   9        -0.00001355
  10        -0.00675776
  11         0.00226982
  12         0.00226982
  13        -0.00003196
  14        -0.00003137
  15        -0.00000025
  16        -0.00094133
  17         0.02756043
  18        -0.02835954
  19        -0.68836405
  20         0.00000985
  21         0.00000970
  22         0.74930679
  23        -0.00001074
  24        -0.00001057
  25         0.00676666
  26        -0.00227962
  27        -0.00227963
  28         0.00003197
  29         0.00003139
  30        -0.00000025
Sym=    14a  
Ene=     0.0000
Spin= Alpha
Occup=    0.00341
   1         0.00188440
   2        -0.00513499
   3        -0.01083828
   4        -0.06324179
   5         0.00002347
   6         0.00002305
   7         0.06731004
   8        -0.00002607
   9        -0.00002560
  10        -0.69673053
  11         0.35905202
  12         0.35905423
  13        -0.00100899
  14        -0.00099040
  15         0.00009402
  16         0.00188422
  17        -0.00515460
  18        -0.01079732
  19         0.06322577
  20        -0.00002272
  21        -0.00002230
  22        -0.06729213
  23         0.00002526
  24         0.00002480
  25        -0.69737506
  26         0.35936158
  27         0.35935984
  28        -0.00101876
  29        -0.00100011
  30        -0.00010876
Sym=    15a  
Ene=     0.0000
Spin= Alpha
Occup=    0.00340
   1        -0.00000095
   2        -0.00007486
   3         0.00016100
   4         0.00005760
   5        -0.03905408
   6        -0.03831398
   7        -0.00006400
   8         0.04157777
   9         0.04078983
  10        -0.00183979
  11         0.00080357
  12         0.00091802
  13        -0.50313357
  14        -0.49360338
  15        -0.00350866
  16         0.00000100
  17         0.00007477
  18        -0.00016135
  19         0.00005911
  20        -0.03905738
  21        -0.03831732
  22        -0.00006561
  23         0.04158119
  24         0.04079332
  25         0.00182328
  26        -0.00079511
  27        -0.00090939
  28         0.50325937
  29         0.49371906
  30         0.00350279
Sym=    16a  
Ene=     0.0000
Spin= Alpha
Occup=    0.00340
   1        -0.00000000
   2        -0.00000002
   3         0.00000005
   4         0.00000001
   5         0.03831601
   6        -0.03905604
   7        -0.00000001
   8        -0.04079213
   9         0.04157998
  10        -0.00000059
  11         0.00303815
  12        -0.00303759
  13         0.49347343
  14        -0.50300900
  15        -0.00006609
  16         0.00000000
  17         0.00000002
  18        -0.00000005
  19         0.00000002
  20         0.03831555
  21        -0.03905568
  22        -0.00000002
  23        -0.04079129
  24         0.04157926
  25         0.00000049
  26        -0.00303451
  27         0.00303406
  28        -0.49385213
  29         0.50338711
  30         0.00006597
Sym=    17a  
Ene=     0.0000
Spin= Alpha
Occup=    0.00337
   1         0.00000021
   2         0.00000066
   3        -0.00000431
   4        -0.00000067
   5        -0.00003184
   6        -0.00003321
   7         0.00000044
   8         0.00003893
   9         0.00004061
  10        -0.00025212
  11        -0.00716079
  12         0.00741783
  13         0.00521995
  14         0.00544556
  15         0.70856038
  16        -0.00000002
  17         0.00000035
  18         0.00000013
  19         0.00000374
  20         0.00003086
  21         0.00003219
  22        -0.00000424
  23        -0.00003789
  24        -0.00003953
  25         0.00020895
  26        -0.00736229
  27         0.00715273
  28         0.00523253
  29         0.00545863
  30         0.70546929
Sym=    18a  
Ene=     0.0000
Spin= Alpha
Occup=    0.00337
   1        -0.00000000
   2        -0.00000002
   3         0.00000006
   4         0.00000007
   5         0.00003309
   6        -0.00003172
   7        -0.00000007
   8        -0.00004049
   9         0.00003880
  10         0.00000081
  11        -0.61363178
  12         0.61363090
  13        -0.00544721
  14         0.00522163
  15        -0.00841697
  16        -0.00000000
  17        -0.00000002
  18         0.00000006
  19        -0.00000007
  20        -0.00003231
  21         0.00003098
  22         0.00000007
  23         0.00003966
  24        -0.00003802
  25         0.00000051
  26        -0.61095463
  27         0.61095405
  28        -0.00545718
  29         0.00523106
  30        -0.00838025
Sym=    19a  
Ene=     0.0000
Spin= Alpha
Occup=    0.00335
   1        -0.00000000
   2         0.00000002
   3        -0.00000004
   4        -0.00000004
   5         0.00019724
   6        -0.00018855
   7         0.00000005
   8        -0.00020995
   9         0.00020069
  10         0.00000221
  11        -0.61097262
  12         0.61097043
  13         0.00256787
  14        -0.00245447
  15        -0.00935911
  16         0.00000000
  17        -0.00000003
  18         0.00000005
  19        -0.00000001
  20         0.00019774
  21        -0.00018903
  22         0.00000001
  23        -0.00021056
  24         0.00020128
  25        -0.00000263
  26         0.61364891
  27        -0.61364630
  28        -0.00248553
  29         0.00237620
  30         0.00940010
Sym=    20a  
Ene=     0.0000
Spin= Alpha
Occup=    0.00335
   1         0.00000017
   2        -0.00000174
   3         0.00000171
   4        -0.00000943
   5         0.00018850
   6         0.00019720
   7         0.00001013
   8        -0.00020064
   9        -0.00020989
  10        -0.00002659
  11         0.00811852
  12        -0.00809194
  13         0.00245940
  14         0.00257270
  15        -0.70548920
  16         0.00000020
  17        -0.00000345
  18         0.00000453
  19         0.00000782
  20         0.00018905
  21         0.00019777
  22        -0.00000823
  23        -0.00020130
  24        -0.00021059
  25        -0.00017614
  26        -0.00805344
  27         0.00822802
  28        -0.00237094
  29        -0.00248040
  30         0.70857915
Sym=    21a  
Ene=     0.0000
Spin= Alpha
Occup=    0.00334
   1         0.00000000
   2         0.00000003
   3        -0.00000009
   4        -0.00000007
   5         0.00294660
   6        -0.00300460
   7         0.00000007
   8        -0.00361425
   9         0.00368535
  10         0.00000032
  11         0.00650361
  12        -0.00650385
  13        -0.49527863
  14         0.50497221
  15        -0.00014229
  16         0.00000000
  17         0.00000002
  18        -0.00000007
  19         0.00000006
  20        -0.00297608
  21         0.00303404
  22        -0.00000006
  23         0.00364564
  24        -0.00371668
  25        -0.00000148
  26         0.00657658
  27        -0.00657502
  28        -0.49490141
  29         0.50459555
  30        -0.00014414
Sym=    22a  
Ene=     0.0000
Spin= Alpha
Occup=    0.00334
   1         0.00000723
   2         0.00005196
   3        -0.00018617
   4        -0.00014599
   5        -0.00301447
   6        -0.00295688
   7         0.00015529
   8         0.00369584
   9         0.00362520
  10        -0.00127781
  11         0.00060670
  12         0.00085329
  13         0.50484534
  14         0.49514641
  15        -0.00750331
  16         0.00000728
  17         0.00005087
  18        -0.00018482
  19         0.00014478
  20         0.00302408
  21         0.00296570
  22        -0.00015384
  23        -0.00370609
  24        -0.00363459
  25        -0.00142643
  26         0.00067935
  27         0.00092888
  28         0.50472043
  29         0.49503169
  30        -0.00759939
Sym=    23a  
Ene=     0.0000
Spin= Alpha
Occup=    0.00334
   1        -0.00022925
   2         0.00517048
   3        -0.00630185
   4        -0.00556581
   5        -0.00010292
   6        -0.00010103
   7         0.00674253
   8         0.00010945
   9         0.00010743
  10         0.70796096
  11        -0.35311537
  12        -0.35311304
  13        -0.00132549
  14        -0.00130227
  15         0.00029817
  16         0.00022665
  17        -0.00518074
  18         0.00635188
  19        -0.00562819
  20        -0.00010352
  21        -0.00010162
  22         0.00680886
  23         0.00011018
  24         0.00010816
  25        -0.70734692
  26         0.35277693
  27         0.35278360
  28         0.00122539
  29         0.00120175
  30         0.00016594
Sym=    24a  
Ene=     0.0000
Spin= Alpha
Occup=    0.00027
   1         0.26316696
   2        -0.75531578
   3        -1.34524206
   4        -0.03177324
   5         0.00000305
   6         0.00000300
   7         0.03390629
   8        -0.00000322
   9        -0.00000316
  10         0.93556902
  11         0.92293413
  12         0.92293410
  13        -0.00003075
  14        -0.00003018
  15        -0.00000120
  16         0.26314624
  17        -0.75525676
  18        -1.34513555
  19         0.03177102
  20        -0.00000305
  21        -0.00000300
  22        -0.03390393
  23         0.00000322
  24         0.00000316
  25         0.93548529
  26         0.92286636
  27         0.92286638
  28        -0.00003074
  29        -0.00003018
  30         0.00000121
Sym=    25a  
Ene=     0.0000
Spin= Alpha
Occup=    0.00023
   1         0.26488500
   2        -0.77209142
   3        -1.33426731
   4        -0.00242204
   5         0.00000126
   6         0.00000123
   7         0.00226879
   8        -0.00000129
   9        -0.00000127
  10         0.92856916
  11         0.92978170
  12         0.92978168
  13        -0.00002498
  14        -0.00002452
  15        -0.00000101
  16        -0.26490596
  17         0.77215309
  18         1.33437190
  19        -0.00242408
  20         0.00000126
  21         0.00000123
  22         0.00227100
  23        -0.00000129
  24        -0.00000127
  25        -0.92863464
  26        -0.92985897
  27        -0.92985899
  28         0.00002498
  29         0.00002452
  30        -0.00000102
Sym=    26a  
Ene=     0.0000
Spin= Alpha
Occup=   -0.10818
   1         0.13139952
   2        -1.20939820
   3         0.78480241
   4         0.06005391
   5         0.00000176
   6         0.00000173
   7        -0.06715029
   8        -0.00000175
   9        -0.00000172
  10         0.09494861
  11         0.10408231
  12         0.10408234
  13         0.00004634
  14         0.00004549
  15         0.00000189
  16         0.13137370
  17        -1.20915719
  18         0.78464285
  19        -0.06004972
  20        -0.00000176
  21        -0.00000173
  22         0.06714641
  23         0.00000175
  24         0.00000172
  25         0.09494507
  26         0.10405604
  27         0.10405600
  28         0.00004633
  29         0.00004548
  30        -0.00000189
Sym=    27a  
Ene=     0.0000
Spin= Alpha
Occup=   -0.11942
   1         0.12820872
   2        -1.20099439
   3         0.80603361
   4         0.01981288
   5        -0.00001027
   6        -0.00001009
   7        -0.01725204
   8         0.00001135
   9         0.00001114
  10         0.08870559
  11         0.08306120
  12         0.08306123
  13         0.00004435
  14         0.00004354
  15         0.00000178
  16        -0.12823472
  17         1.20123517
  18        -0.80619245
  19         0.01982046
  20        -0.00001027
  21        -0.00001009
  22        -0.01726070
  23         0.00001135
  24         0.00001114
  25        -0.08873789
  26        -0.08307251
  27        -0.08307247
  28        -0.00004436
  29        -0.00004354
  30         0.00000179
Sym=    28a  
Ene=     0.0000
Spin= Alpha
Occup=  -33.35171
   1        -0.00041057
   2         0.00786662
   3        -0.00912383
   4        -0.41356319
   5         0.00002387
   6         0.00002343
   7        -0.39766053
   8         0.00001196
   9         0.00001174
  10        -0.00158038
  11         0.00267334
  12         0.00267334
  13         0.00000007
  14         0.00000006
  15        -0.00000000
  16        -0.00041043
  17         0.00786624
  18        -0.00912406
  19         0.41354950
  20        -0.00002403
  21        -0.00002358
  22         0.39765153
  23        -0.00001212
  24        -0.00001190
  25        -0.00158035
  26         0.00267330
  27         0.00267330
  28         0.00000007
  29         0.00000006
  30         0.00000000
Sym=    29a  
Ene=     0.0000
Spin= Alpha
Occup=  -33.95553
   1        -0.00000000
   2         0.00000000
   3         0.00000000
   4        -0.00000001
   5        -0.29036999
   6         0.29589656
   7        -0.00000001
   8        -0.27781982
   9         0.28310755
  10        -0.00000000
  11         0.00000007
  12        -0.00000007
  13        -0.00168140
  14         0.00171341
  15        -0.00000000
  16         0.00000000
  17        -0.00000000
  18        -0.00000000
  19        -0.00000001
  20        -0.29037267
  21         0.29589941
  22        -0.00000001
  23        -0.27782151
  24         0.28310935
  25         0.00000000
  26        -0.00000007
  27         0.00000007
  28         0.00168139
  29        -0.00171339
  30         0.00000000
Sym=    30a  
Ene=     0.0000
Spin= Alpha
Occup=  -33.95554
   1        -0.00000053
   2         0.00000158
   3         0.00000075
   4        -0.00006264
   5         0.29589464
   6         0.29036799
   7        -0.00004570
   8         0.28310630
   9         0.27781852
  10        -0.00000003
  11         0.00000013
  12         0.00000013
  13         0.00171340
  14         0.00168140
  15        -0.00000008
  16         0.00000053
  17        -0.00000158
  18        -0.00000076
  19        -0.00006242
  20         0.29590133
  21         0.29037467
  22        -0.00004548
  23         0.28311059
  24         0.27782280
  25         0.00000002
  26        -0.00000013
  27        -0.00000013
  28        -0.00171340
  29        -0.00168140
  30         0.00000008
