   This run of MOLCAS is using the pymolcas driver

                             OPE
                             OPE          NMOL  CASOP  ENMOLC A   SO
                 OPE        NMOLC        AS  OP EN  MO LC     AS  OP
                OPENM       OL CA        SO  PE NM  OL CA     SOP EN
                OP EN      MO   LC       AS  OP ENMOL  CASO   PENMOL
                OP  EN     MO   LC       AS  OP EN     MO     LC ASO
               OP   E  NMOL  C  AS       OP  EN MO     LC     AS  OP
               OP  E   NMO   LC AS        OPEN  MO     LCASOP EN   M
               O  PEN   MO  LCA  SO
            OPE   NMO   L   CAS    OP
        OPENMOL  CASOP     ENMOL   CASOPE
     OPENMOLCA   SOPENMOLCASOPEN   MOLCASOPE
    OPENMOLCAS   OP           EN   MOL    CAS
    OPENMOLCAS       OP  ENM        O     LCA
    OPENMOLCAS    OPEN  MOLCASO     P  E  NMO
    OPENMOLCAS     OP               E  N  MOL
    OPENMOLCA   SO           PENM   O  L  CAS    OPEN    MO    LCAS
    OPENMOLCA   SOP           ENM   O  L  CAS   OP  EN  MOLC  AS   O
    OPENMOLCA   SOPE           NM      O  LCA   S      OP  EN MO
    OPENMOLC                AS         O  PEN   M      OL  CA  SOPE
    OPENMO        LCASOPE  NMOL        C  ASO   P      ENMOLC     AS
    OPE     NMO      LCA  SO     P     E   NM   OL  CA SO  PE N   MO
          OPENMOLCA            SOPE   NMO        LCAS  O    P  ENMO
     OPENMOLCASOPENMOLCASOPENMOLCASOPENMOLCA
        OPENMOLCASOPENMOLCASOPENMOLCASOPE
            OPENMOLCASOPENMOLCASOPENM
               OPENMOLCASOPENMOLCA        version: 24.02
                   OPENMOLCASO
                       OPE                tag: 428-g03afa2e9a

 OpenMolcas is free software; you can redistribute it and/or modify it
 under the terms of the GNU Lesser General Public License version 2.1.
 OpenMolcas is distributed in the hope that it will be useful, but it
 is provided "as is" and without any express or implied warranties.
 For more details see the full text of the license in the file
 LICENSE or in <http://www.gnu.org/licenses/>.

                 Copyright (C) The OpenMolcas Authors
           For the author list and the recommended citation,
                   consult the file CONTRIBUTORS.md

           *************************************************
           * pymolcas version py2.28                       *
           *   build c4a6d18ded8cb6cad61d2372a9abd97c      *
           *   (after the EMIL interpreter by V. Veryazov) *
           *************************************************

configuration info
------------------
Host name: DESKTOP-ET1S6F4 (Linux)
C Compiler ID: GNU
C flags: -std=gnu99 -fopenmp
Fortran Compiler ID: GNU
Fortran flags: -fno-aggressive-loop-optimizations -cpp -fdefault-integer-8 -fopenmp
Definitions: _WARNING_WORKAROUND_;_MOLCAS_;_I8_;_LINUX_
Parallel: OFF (GA=OFF)


   ----------------------------------------------------------------------
  |
  |           Project: n2
  |    Submitted from: /home/kenya/molcas_test/0604
  |      Scratch area: /tmp/n2
  |   Save outputs to: /home/kenya/molcas_test/0604
  |            Molcas: /home/kenya/OpenMolcas/builds/gnu_dev_omp
  |
  | Scratch area is NOT empty
  |
  |    MOLCAS_DRIVER = /home/kenya/OpenMolcas/builds/gnu_dev_omp/pymolcas
  |    MOLCAS_NPROCS = 1
  |    MOLCAS_SOURCE = /home/kenya/OpenMolcas
  | MOLCAS_STRUCTURE = 0
  |
   ----------------------------------------------------------------------

++ ---------   Input file   ---------

>>> EXPORT DIST = 0.5

>>> FOREACH L IN (1 .. 101)

  &GATEWAY
    Coord = 2
    Angstrom
    N 0.0 0.0 0.0
    N $DIST 0.0 0.0
    Basis = 6-31G*
    Group = C1
    NoCD

  &SEWARD

  &SCF
  FILEORB = n2.ScfOrb

  &MBPT2

  >>> EVAL DIST = $DIST + 0.1

>>> END FOREACH

-- ----------------------------------

>>> EXPORT DIST = 0.5

>>> EXPORT L = 1

*** symbolic link created: INPORB -> n2.ScfOrb
--- Start Module: gateway at Tue Jun  4 14:23:30 2024 ---

()()()()()()()()()()()()()()()()()()()()()()()()()()()()()()()()()()()()()()()()()()()()()()()()()()

                                              &GATEWAY

                                   only a single process is used
                       available to each process: 2.0 GB of memory, 1 thread
                                             pid: 56954
()()()()()()()()()()()()()()()()()()()()()()()()()()()()()()()()()()()()()()()()()()()()()()()()()()


++    Symmetry information:
      ---------------------

                    Character Table for C1 

                             E  
                    a        1  x, y, xy, Rz, z, xz, Ry, yz, Rx, I
--


++    Basis set information:
      ----------------------


      Basis set label: N.6-31G**....

      Electronic valence basis set:
      ------------------
      Associated Effective Charge   7.000000 au
      Associated Actual Charge      7.000000 au
      Nuclear Model: Point charge

      Shell  nPrim  nBasis  Cartesian Spherical Contaminant
         s      10       3        X                  
         p       4       2        X                  
         d       1       1        X                  
--


++    Molecular structure info:
      -------------------------

                    ************************************************ 
                    **** Cartesian Coordinates / Bohr, Angstrom **** 
                    ************************************************ 

     Center  Label                x              y              z                     x              y              z
        1      N1               0.000000       0.000000       0.000000              0.000000       0.000000       0.000000
        2      N2               0.944863       0.000000       0.000000              0.500000       0.000000       0.000000
--


            Nuclear Potential Energy             51.85936667 au

--- Stop Module: gateway at Tue Jun  4 14:23:30 2024 /rc=_RC_ALL_IS_WELL_ ---
*** files: xmldump
    saved to directory /home/kenya/molcas_test/0604

*** symbolic link created: INPORB -> n2.ScfOrb
--- Start Module: seward at Tue Jun  4 14:23:30 2024 ---

()()()()()()()()()()()()()()()()()()()()()()()()()()()()()()()()()()()()()()()()()()()()()()()()()()

                                              &SEWARD

                                   only a single process is used
                       available to each process: 2.0 GB of memory, 1 thread
                                             pid: 56958
()()()()()()()()()()()()()()()()()()()()()()()()()()()()()()()()()()()()()()()()()()()()()()()()()()

               SEWARD will generate:
                  Multipole Moment integrals up to order  2
                  Kinetic Energy integrals
                  Nuclear Attraction integrals (point charge)
                  One-Electron Hamiltonian integrals
                  Velocity integrals
                  Orbital angular momentum around ( 0.4724  0.0000  0.0000 )
                  Velocity quadrupole around ( 0.4724  0.0000  0.0000 )
                  Two-Electron Repulsion integrals

                   Integrals are discarded if absolute value <: 1.00E-14
                   Integral cutoff threshold is set to       <: 1.00E-16

            Nuclear Potential Energy             51.85936667 au


      Basis set specifications :
      Symmetry species         a  
      Basis functions           30


      Input file to MOLDEN was generated!

--- Stop Module: seward at Tue Jun  4 14:23:31 2024 /rc=_RC_ALL_IS_WELL_ ---
*** files: n2.GssOrb n2.guessorb.molden xmldump
    saved to directory /home/kenya/molcas_test/0604
--- Module seward spent 1 second ---

*** symbolic link created: INPORB -> n2.ScfOrb
--- Start Module: scf at Tue Jun  4 14:23:31 2024 ---

()()()()()()()()()()()()()()()()()()()()()()()()()()()()()()()()()()()()()()()()()()()()()()()()()()

                                                &SCF

                                   only a single process is used
                       available to each process: 2.0 GB of memory, 1 thread
                                             pid: 56970
()()()()()()()()()()()()()()()()()()()()()()()()()()()()()()()()()()()()()()()()()()()()()()()()()()

++    Input section:
      --------------

      Header of the integral files:
      
       Integrals generated by Gateway/Seward, Tue Jun  4 14:23:30 2024


      Cartesian coordinates in Angstrom:
      -----------------------------------------------------
      No.  Label        X            Y            Z        
      -----------------------------------------------------
       1   N1         0.00000000   0.00000000   0.00000000
       2   N2         0.50000000   0.00000000   0.00000000
      -----------------------------------------------------
      Nuclear repulsion energy =   51.85936667
--

++    Orbital specifications:
      -----------------------

      Symmetry species               1
                                     a
      Frozen orbitals                0
      Occupied orbitals              7
      Secondary orbitals            23
      Deleted orbitals               0
      Total number of orbitals      30
      Number of basis functions     30
--

      Molecular charge                           0.000

++    Optimization specifications:
      ----------------------------

      SCF Algorithm: Conventional
      Minimized density differences are used
      Number of density matrices in core                 5
      Maximum number of NDDO SCF iterations            400
      Maximum number of HF SCF iterations              400
      Threshold for SCF energy change             1.00E-09
      Threshold for density matrix                1.00E-04
      Threshold for Fock matrix                   1.50E-04
      Threshold for linear dependence             1.00E-09
      Threshold at which DIIS is turned on        1.50E-01
      Maximum depth in the DIIS procedure                5
      Maximum depth in the BFGS Hessian update          30
      Threshold at which QNR/C2DIIS is turned on  7.50E-02
      Threshold for Norm(delta) (QNR/C2DIIS)      1.00E-03
      All orbitals punched on: SCFORB
--

      Input vectors read from INPORB
      Orbital file label: * SCF orbitals


++ Convergence information
                                   SCF        iterations: Energy and convergence statistics

Iter     Tot. SCF        One-elec.       Two-elec.     Energy      Max Dij or  Max Fij      DNorm      TNorm      AccCon     Time
         Energy          Energy          Energy        Change      Delta Norm                                                in Sec.
   1   -99.651184265  -223.358926651    71.848375717   0.00E+00    7.51E-01*   1.64E+00*    3.85E+01   1.02E+02   None         0.
   2  -102.887646998  -238.419893553    83.672879886  -3.24E+00*   2.32E-01*   1.57E-01*    1.48E+01   1.09E+02   EDIIS        0.
   3  -103.045823800  -234.881709065    79.976518596  -1.58E-01*   6.28E-02*   5.55E-02*    5.19E+00   1.07E+02   EDIIS        0.
   4  -103.056079555  -235.640786711    80.725340487  -1.03E-02*   1.55E-02*   1.12E-02*    1.70E+00   1.07E+02   c2DIIS       0.
   5  -103.056854849  -235.438870681    80.522649164  -7.75E-04*   3.92E-03*   3.74E-03*    4.07E-01   1.07E+02   QNRc2DIIS    0.
   6  -103.056925717  -235.460634736    80.544342350  -7.09E-05*   1.88E-03*   9.03E-04*    1.22E-02   1.07E+02   QNRc2DIIS    0.
   7  -103.056933406  -235.449546757    80.533246682  -7.69E-06*   1.03E-04    8.77E-05     2.33E-03   1.07E+02   QNRc2DIIS    0.
   8  -103.056933452  -235.451133307    80.534833187  -4.56E-08*   2.35E-05    1.15E-05     3.22E-04   1.07E+02   QNRc2DIIS    0.
   9  -103.056933453  -235.451117598    80.534817476  -1.37E-09*   9.60E-07    7.82E-07     9.58E-05   1.07E+02   QNRc2DIIS    0.
  10  -103.056933453  -235.451116878    80.534816756  -2.61E-12    1.88E-07    2.18E-07     1.29E-05   1.07E+02   QNRc2DIIS    0.

       Convergence after  10 Macro Iterations
--

 *****************************************************************************************************************************
 *                                                                                                                           *
 *                                             SCF/KS-DFT Program, Final results                                             *
 *                                                                                                                           *
 *                                                                                                                           *
 *                                                                                                                           *
 *                                                       Final Results                                                       *
 *                                                                                                                           *
 *****************************************************************************************************************************

::    Total SCF energy                               -103.0569334529
      One-electron energy                            -235.4511168779
      Two-electron energy                              80.5348167565
      Nuclear repulsion energy                         51.8593666685
      Kinetic energy (interpolated)                   121.7545930014
      Virial theorem                                    0.8464315876
      Total spin, S(S+1)                                0.0000000000
      Total spin, S                                     0.0000000000
      Max non-diagonal density matrix element           0.0000001587
      Max non-diagonal Fock matrix element              0.0000000189


      All orbitals with orbital energies smaller than  E(LUMO)+0.5 are printed

++    Molecular orbitals:
      -------------------

      Title: SCF orbitals

      Molecular orbitals for symmetry species 1: a  

          Orbital            1         2         3         4         5         6         7         8         9        10    
          Energy          -16.4916  -15.7896   -1.4520   -1.1778   -1.1778   -0.5512   -0.5507    0.5222    0.5222    0.5705
          Occ. No.          2.0000    2.0000    2.0000    2.0000    2.0000    2.0000    2.0000    0.0000    0.0000    0.0000

        1 N1     1s         0.6747   -0.7249   -0.3026   -0.0000    0.0000    0.1360   -0.1504   -0.0000    0.0000    0.0000
        2 N1     2s        -0.0201   -0.0435    0.2750   -0.0000    0.0000   -0.2635   -0.2382   -0.0000   -0.0000    0.0000
        3 N1     *s        -0.0010   -0.0857    0.1384    0.0000   -0.0000    0.0075   -0.3351   -0.0000    0.0000    0.0000
        4 N1     2px        0.0466   -0.0150    0.2829    0.0000   -0.0000    0.2779    0.7475    0.0000   -0.0000   -0.0000
        5 N1     *px        0.0079   -0.0177    0.0043    0.0000   -0.0000    0.2870    0.2636   -0.0000    0.0000    0.0000
        6 N1     2py        0.0000    0.0000    0.0000    0.5159    0.0002    0.0000    0.0000   -0.2534   -0.0001   -0.3844
        7 N1     *py       -0.0000    0.0000   -0.0000    0.0389    0.0000    0.0000    0.0000   -2.1503   -0.0009    0.6085
        8 N1     2pz       -0.0000    0.0000    0.0000   -0.0002    0.5159    0.0000   -0.0000    0.0001   -0.2534    0.0002
        9 N1     *pz       -0.0000   -0.0000   -0.0000   -0.0000    0.0389    0.0000   -0.0000    0.0009   -2.1503   -0.0003
       10 N1     *200       0.0209    0.0014    0.0412    0.0000    0.0000   -0.0015    0.1042    0.0000   -0.0000   -0.0000
       11 N1     *110       0.0000    0.0000    0.0000    0.0455    0.0000   -0.0000    0.0000   -0.0211   -0.0000   -0.0267
       12 N1     *101      -0.0000   -0.0000    0.0000   -0.0000    0.0455   -0.0000   -0.0000    0.0000   -0.0211    0.0000
       13 N1     *020      -0.0017    0.0040    0.0126   -0.0000    0.0000   -0.0024    0.0195    0.0000    0.0000    0.0000
       14 N1     *011       0.0000    0.0000    0.0000   -0.0000    0.0000    0.0000    0.0000   -0.0000   -0.0000   -0.0000
       15 N1     *002      -0.0017    0.0040    0.0126   -0.0000   -0.0000   -0.0024    0.0195    0.0000    0.0000   -0.0000
       16 N2     1s         0.6747    0.7249   -0.3026   -0.0000    0.0000   -0.1359   -0.1505   -0.0000    0.0000    0.0000
       17 N2     2s        -0.0201    0.0435    0.2750   -0.0000   -0.0000    0.2636   -0.2381   -0.0000    0.0000    0.0000
       18 N2     *s        -0.0010    0.0857    0.1384   -0.0000    0.0000   -0.0073   -0.3351    0.0000   -0.0000   -0.0000
       19 N2     2px       -0.0466   -0.0150   -0.2829   -0.0000   -0.0000    0.2782   -0.7474   -0.0000    0.0000    0.0000
       20 N2     *px       -0.0079   -0.0177   -0.0043    0.0000   -0.0000    0.2871   -0.2635   -0.0000    0.0000    0.0000
       21 N2     2py       -0.0000   -0.0000   -0.0000    0.5159    0.0002   -0.0000   -0.0000    0.2534    0.0001   -0.3844
       22 N2     *py        0.0000   -0.0000    0.0000    0.0389    0.0000   -0.0000   -0.0000    2.1503    0.0009    0.6085
       23 N2     2pz        0.0000    0.0000    0.0000   -0.0002    0.5159   -0.0000    0.0000   -0.0001    0.2534    0.0002
       24 N2     *pz       -0.0000   -0.0000    0.0000   -0.0000    0.0389    0.0000    0.0000   -0.0009    2.1503   -0.0003
       25 N2     *200       0.0209   -0.0014    0.0412    0.0000   -0.0000    0.0015    0.1042    0.0000   -0.0000   -0.0000
       26 N2     *110       0.0000    0.0000   -0.0000   -0.0455   -0.0000    0.0000    0.0000   -0.0211   -0.0000    0.0267
       27 N2     *101      -0.0000    0.0000   -0.0000    0.0000   -0.0455   -0.0000   -0.0000    0.0000   -0.0211   -0.0000
       28 N2     *020      -0.0017   -0.0040    0.0126    0.0000   -0.0000    0.0024    0.0195    0.0000   -0.0000    0.0000
       29 N2     *011      -0.0000   -0.0000    0.0000    0.0000   -0.0000    0.0000    0.0000    0.0000    0.0000   -0.0000
       30 N2     *002      -0.0017   -0.0040    0.0126   -0.0000   -0.0000    0.0024    0.0195   -0.0000   -0.0000   -0.0000

          Orbital           11        12        13        14    
          Energy            0.5705    0.6478    0.6899    0.8360
          Occ. No.          0.0000    0.0000    0.0000    0.0000

        1 N1     1s         0.0000    0.0745   -0.0227   -0.0276
        2 N1     2s         0.0000   -0.1657   -0.0564    0.5270
        3 N1     *s        -0.0000  -48.8397    0.5145   -0.8885
        4 N1     2px        0.0000    0.1411    0.4086   -0.0067
        5 N1     *px       -0.0000  -11.3824   -1.7194   -0.9647
        6 N1     2py       -0.0002    0.0000    0.0000   -0.0000
        7 N1     *py        0.0003    0.0000    0.0000    0.0000
        8 N1     2pz       -0.3844    0.0000   -0.0000    0.0000
        9 N1     *pz        0.6085    0.0000    0.0000   -0.0000
       10 N1     *200      -0.0000   -0.0168   -0.0746    0.2500
       11 N1     *110      -0.0000    0.0000    0.0000    0.0000
       12 N1     *101      -0.0267    0.0000    0.0000    0.0000
       13 N1     *020      -0.0000    0.0333   -0.0064    0.1138
       14 N1     *011      -0.0000    0.0000    0.0000   -0.0000
       15 N1     *002      -0.0000    0.0333   -0.0064    0.1138
       16 N2     1s         0.0000   -0.0745   -0.0227   -0.0276
       17 N2     2s        -0.0000    0.1657   -0.0564    0.5270
       18 N2     *s         0.0000   48.8397    0.5146   -0.8885
       19 N2     2px       -0.0000    0.1411   -0.4086    0.0067
       20 N2     *px       -0.0000  -11.3824    1.7193    0.9647
       21 N2     2py       -0.0002   -0.0000   -0.0000    0.0000
       22 N2     *py        0.0003   -0.0000   -0.0000   -0.0000
       23 N2     2pz       -0.3844    0.0000    0.0000   -0.0000
       24 N2     *pz        0.6085   -0.0000   -0.0000    0.0000
       25 N2     *200      -0.0000    0.0168   -0.0746    0.2500
       26 N2     *110       0.0000    0.0000    0.0000   -0.0000
       27 N2     *101       0.0267   -0.0000   -0.0000    0.0000
       28 N2     *020       0.0000   -0.0333   -0.0064    0.1138
       29 N2     *011       0.0000    0.0000    0.0000   -0.0000
       30 N2     *002      -0.0000   -0.0333   -0.0064    0.1138
--


++    Molecular charges:
      ------------------

      Mulliken charges per centre and basis function type
      ---------------------------------------------------

                N1      N2    
      1s       1.9972  1.9972
      2s       0.6970  0.6970
      2px      1.3391  1.3391
      2pz      0.9228  0.9228
      2py      0.9228  0.9228
      *s       0.5250  0.5250
      *px      0.4957  0.4957
      *pz      0.0451  0.0451
      *py      0.0451  0.0451
      *200    -0.0900 -0.0900
      *110     0.0321  0.0321
      *101     0.0321  0.0321
      *020     0.0180  0.0180
      *011     0.0000  0.0000
      *002     0.0180  0.0180
      Total    7.0000  7.0000

      N-E     -0.0000  0.0000

      Total electronic charge=   14.000000

      Total            charge=   -0.000000
--


++    Molecular properties:
      ---------------------

      Charge (e):
                      =   -0.0000
      Dipole Moment (Debye):
      Origin of the operator (Ang)=    0.0000    0.0000    0.0000
                   X= -2.8767E-07               Y=  4.4313E-16               Z=  1.2374E-16           Total=  2.8767E-07
      Quadrupole Moment (Debye*Ang):
      Origin of the operator (Ang)=    0.2500    0.0000    0.0000
                  XX= -1.0843E+01              XY= -1.5088E-16              XZ= -1.8345E-16              YY= -7.4030E+00
                  YZ=  2.7840E-13              ZZ= -7.4030E+00
      In traceless form (Debye*Ang)
                  XX= -3.4402E+00              XY= -2.2631E-16              XZ= -2.7518E-16              YY=  1.7201E+00
                  YZ=  4.1760E-13              ZZ=  1.7201E+00
--


      Input file to MOLDEN was generated!

 ###############################################################################
 ###############################################################################
 ###                                                                         ###
 ###                                                                         ###
 ###    WARNING: RunFile label nBas                                          ###
 ###    was used       60 times                                              ###
 ###                                                                         ###
 ###                                                                         ###
 ###############################################################################
 ###############################################################################
--- Stop Module: scf at Tue Jun  4 14:23:32 2024 /rc=_RC_ALL_IS_WELL_ ---
*** files: n2.scf.molden n2.ScfOrb xmldump
    saved to directory /home/kenya/molcas_test/0604

*** symbolic link created: INPORB -> n2.ScfOrb
--- Start Module: mbpt2 at Tue Jun  4 14:23:32 2024 ---

()()()()()()()()()()()()()()()()()()()()()()()()()()()()()()()()()()()()()()()()()()()()()()()()()()

                                               &MBPT2

                                   only a single process is used
                       available to each process: 2.0 GB of memory, 1 thread
                                             pid: 56989
()()()()()()()()()()()()()()()()()()()()()()()()()()()()()()()()()()()()()()()()()()()()()()()()()()


      Cartesian coordinates in Angstrom:
      -----------------------------------------------------
      No.  Label        X            Y            Z        
      -----------------------------------------------------
       1   N1         0.00000000   0.00000000   0.00000000
       2   N2         0.50000000   0.00000000   0.00000000
      -----------------------------------------------------
      Nuclear repulsion energy =   51.85936667

      Contents of RUNFILE file:
      -------------------------

      Symmetry species                           1
                                                 a
      Number of basis functions                 30
      Frozen occupied orbitals                   2
      Active occupied orbitals                   5
      Active external orbitals                  23
      Deleted external orbitals                  0


      Reference numbers of frozen occupied orbitals according to the original input sequence
      symmetry species 1                        1  2


      Energies of the active occupied orbitals

      symmetry species 1                    -1.451998     -1.177813     -1.177813     -0.551180     -0.550712


      Energies of the active external orbitals

      symmetry species 1                     0.522185      0.522185      0.570541      0.570541      0.647790
                                             0.689919      0.836019      1.353778      1.413801      1.413801
                                             1.648245      1.648245      2.746013      2.746013      2.776695
                                             2.785058      2.785058      3.053007      3.605609      4.137877
                                             4.609217      4.609217     15.534304


      ********************************************************************************************************
      *                                               Results                                                *
      ********************************************************************************************************

 Conventional algorithm used...

      Input file to MOLDEN was generated!


       SCF energy                           =     -103.0569334529 a.u.
       Second-order correlation energy      =       -0.1821730009 a.u.

       Total energy                         =     -103.2391064538 a.u.
       Reference weight ( Cref**2 )         =        0.96256

::    Total MBPT2 energy                             -103.2391064538


++    Molecular properties:
      ---------------------

      Charge (e):
                      =   -0.0000
      Dipole Moment (Debye):
      Origin of the operator (Ang)=    0.0000    0.0000    0.0000
                   X= -2.9790E-07               Y=  4.4784E-16               Z=  1.1166E-16           Total=  2.9790E-07
      Quadrupole Moment (Debye*Ang):
      Origin of the operator (Ang)=    0.2500    0.0000    0.0000
                  XX= -1.0956E+01              XY= -1.3808E-16              XZ= -1.5589E-16              YY= -7.4951E+00
                  YZ=  2.2894E-13              ZZ= -7.4951E+00
      In traceless form (Debye*Ang)
                  XX= -3.4610E+00              XY= -2.0712E-16              XZ= -2.3384E-16              YY=  1.7305E+00
                  YZ=  3.4341E-13              ZZ=  1.7305E+00
--


       Zeroth-order energy (E0)             =      -22.5221166965 a.u.

       Shanks-type energy S1(E)             =     -103.2395194708 a.u.




       Data processing and timing information:

       Section                                              time(sec)
                                                          CPU  Elapsed

      Input data processing                              0.07      0.09
      Transformation of integrals                        0.17      0.19
      MBPT2 calculations (BJAI)                          0.21      0.27
      Total MBPT2 calculations                           0.45      0.55


 ###############################################################################
 ###############################################################################
 ###                                                                         ###
 ###                                                                         ###
 ###    WARNING: RunFile label nBas                                          ###
 ###    was used       54 times                                              ###
 ###                                                                         ###
 ###                                                                         ###
 ###############################################################################
 ###############################################################################
--- Stop Module: mbpt2 at Tue Jun  4 14:23:33 2024 /rc=_RC_ALL_IS_WELL_ ---
*** files: n2.mp2.molden n2.MP2Orb xmldump
    saved to directory /home/kenya/molcas_test/0604

>>> EVAL DIST = 0.5 + 0.1 = 0.6

>>> END FOREACH

>>> EXPORT L = 2

*** symbolic link created: INPORB -> n2.ScfOrb
--- Start Module: gateway at Tue Jun  4 14:23:33 2024 ---

()()()()()()()()()()()()()()()()()()()()()()()()()()()()()()()()()()()()()()()()()()()()()()()()()()

                                              &GATEWAY

                                   only a single process is used
                       available to each process: 2.0 GB of memory, 1 thread
                                             pid: 57003
()()()()()()()()()()()()()()()()()()()()()()()()()()()()()()()()()()()()()()()()()()()()()()()()()()


++    Symmetry information:
      ---------------------

                    Character Table for C1 

                             E  
                    a        1  x, y, xy, Rz, z, xz, Ry, yz, Rx, I
--


++    Basis set information:
      ----------------------


      Basis set label: N.6-31G**....

      Electronic valence basis set:
      ------------------
      Associated Effective Charge   7.000000 au
      Associated Actual Charge      7.000000 au
      Nuclear Model: Point charge

      Shell  nPrim  nBasis  Cartesian Spherical Contaminant
         s      10       3        X                  
         p       4       2        X                  
         d       1       1        X                  
--


++    Molecular structure info:
      -------------------------

                    ************************************************ 
                    **** Cartesian Coordinates / Bohr, Angstrom **** 
                    ************************************************ 

     Center  Label                x              y              z                     x              y              z
        1      N1               0.000000       0.000000       0.000000              0.000000       0.000000       0.000000
        2      N2               1.133836       0.000000       0.000000              0.600000       0.000000       0.000000
--


            Nuclear Potential Energy             43.21613889 au

--- Stop Module: gateway at Tue Jun  4 14:23:34 2024 /rc=_RC_ALL_IS_WELL_ ---
*** files: xmldump
    saved to directory /home/kenya/molcas_test/0604

*** symbolic link created: INPORB -> n2.ScfOrb
--- Start Module: seward at Tue Jun  4 14:23:34 2024 ---

()()()()()()()()()()()()()()()()()()()()()()()()()()()()()()()()()()()()()()()()()()()()()()()()()()

                                              &SEWARD

                                   only a single process is used
                       available to each process: 2.0 GB of memory, 1 thread
                                             pid: 57008
()()()()()()()()()()()()()()()()()()()()()()()()()()()()()()()()()()()()()()()()()()()()()()()()()()

               SEWARD will generate:
                  Multipole Moment integrals up to order  2
                  Kinetic Energy integrals
                  Nuclear Attraction integrals (point charge)
                  One-Electron Hamiltonian integrals
                  Velocity integrals
                  Orbital angular momentum around ( 0.5669  0.0000  0.0000 )
                  Velocity quadrupole around ( 0.5669  0.0000  0.0000 )
                  Two-Electron Repulsion integrals

                   Integrals are discarded if absolute value <: 1.00E-14
                   Integral cutoff threshold is set to       <: 1.00E-16

            Nuclear Potential Energy             43.21613889 au


      Basis set specifications :
      Symmetry species         a  
      Basis functions           30


      Input file to MOLDEN was generated!

--- Stop Module: seward at Tue Jun  4 14:23:35 2024 /rc=_RC_ALL_IS_WELL_ ---
*** files: n2.GssOrb n2.guessorb.molden xmldump
    saved to directory /home/kenya/molcas_test/0604
--- Module seward spent 1 second ---

*** symbolic link created: INPORB -> n2.ScfOrb
--- Start Module: scf at Tue Jun  4 14:23:35 2024 ---

()()()()()()()()()()()()()()()()()()()()()()()()()()()()()()()()()()()()()()()()()()()()()()()()()()

                                                &SCF

                                   only a single process is used
                       available to each process: 2.0 GB of memory, 1 thread
                                             pid: 57021
()()()()()()()()()()()()()()()()()()()()()()()()()()()()()()()()()()()()()()()()()()()()()()()()()()

++    Input section:
      --------------

      Header of the integral files:
      
       Integrals generated by Gateway/Seward, Tue Jun  4 14:23:34 2024


      Cartesian coordinates in Angstrom:
      -----------------------------------------------------
      No.  Label        X            Y            Z        
      -----------------------------------------------------
       1   N1         0.00000000   0.00000000   0.00000000
       2   N2         0.60000000   0.00000000   0.00000000
      -----------------------------------------------------
      Nuclear repulsion energy =   43.21613889
--

++    Orbital specifications:
      -----------------------

      Symmetry species               1
                                     a
      Frozen orbitals                0
      Occupied orbitals              7
      Secondary orbitals            23
      Deleted orbitals               0
      Total number of orbitals      30
      Number of basis functions     30
--

      Molecular charge                           0.000

++    Optimization specifications:
      ----------------------------

      SCF Algorithm: Conventional
      Minimized density differences are used
      Number of density matrices in core                 5
      Maximum number of NDDO SCF iterations            400
      Maximum number of HF SCF iterations              400
      Threshold for SCF energy change             1.00E-09
      Threshold for density matrix                1.00E-04
      Threshold for Fock matrix                   1.50E-04
      Threshold for linear dependence             1.00E-09
      Threshold at which DIIS is turned on        1.50E-01
      Maximum depth in the DIIS procedure                5
      Maximum depth in the BFGS Hessian update          30
      Threshold at which QNR/C2DIIS is turned on  7.50E-02
      Threshold for Norm(delta) (QNR/C2DIIS)      1.00E-03
      All orbitals punched on: SCFORB
--

      Input vectors read from INPORB
      Orbital file label: * SCF orbitals


++ Convergence information
                                   SCF        iterations: Energy and convergence statistics

Iter     Tot. SCF        One-elec.       Two-elec.     Energy      Max Dij or  Max Fij      DNorm      TNorm      AccCon     Time
         Energy          Energy          Energy        Change      Delta Norm                                                in Sec.
   1  -105.980951337  -226.537391999    77.340301771   0.00E+00    1.24E-01*   1.33E-01*    5.24E+00   1.04E+02   None         0.
   2  -106.038896975  -225.620586233    76.365550368  -5.79E-02*   2.81E-02*   3.28E-02*    9.10E-01   1.03E+02   EDIIS        0.
   3  -106.041629855  -225.786913476    76.529144731  -2.73E-03*   6.78E-03*   7.78E-03*    3.37E-01   1.03E+02   c2DIIS       0.
   4  -106.041852159  -225.750181591    76.492190542  -2.22E-04*   1.44E-03*   1.49E-03*    3.94E-02   1.03E+02   QNRc2DIIS    0.
   5  -106.041859368  -225.768304521    76.510306262  -7.21E-06*   4.97E-04    3.89E-04*    4.43E-03   1.03E+02   QNRc2DIIS    0.
   6  -106.041860028  -225.766601611    76.508602693  -6.60E-07*   4.74E-05    4.22E-05     5.11E-04   1.03E+02   QNRc2DIIS    0.
   7  -106.041860034  -225.766243531    76.508244607  -6.27E-09*   3.70E-06    3.49E-06     5.08E-05   1.03E+02   QNRc2DIIS    0.
 DIIS_X: Reduction of the subspace dimension due to numerical imbalance of the values in the B-Matrix
 kOptim=                    5 -> kOptim=                    4
   8  -106.041860034  -225.766247433    76.508248508  -3.67E-11    8.11E-08    1.43E-07     1.03E-05   1.03E+02   QNRc2DIIS    0.

       Convergence after   8 Macro Iterations
--

 *****************************************************************************************************************************
 *                                                                                                                           *
 *                                             SCF/KS-DFT Program, Final results                                             *
 *                                                                                                                           *
 *                                                                                                                           *
 *                                                                                                                           *
 *                                                       Final Results                                                       *
 *                                                                                                                           *
 *****************************************************************************************************************************

::    Total SCF energy                               -106.0418600341
      One-electron energy                            -225.7662474327
      Two-electron energy                              76.5082485082
      Nuclear repulsion energy                         43.2161388904
      Kinetic energy (interpolated)                   117.8246956444
      Virial theorem                                    0.8999968933
      Total spin, S(S+1)                                0.0000000000
      Total spin, S                                     0.0000000000
      Max non-diagonal density matrix element           0.0000000954
      Max non-diagonal Fock matrix element              0.0000000120


      All orbitals with orbital energies smaller than  E(LUMO)+0.5 are printed

++    Molecular orbitals:
      -------------------

      Title: SCF orbitals

      Molecular orbitals for symmetry species 1: a  

          Orbital            1         2         3         4         5         6         7         8         9        10    
          Energy          -15.9049  -15.6486   -1.6026   -0.9978   -0.9978   -0.6406   -0.5826    0.4742    0.4742    0.6270
          Occ. No.          2.0000    2.0000    2.0000    2.0000    2.0000    2.0000    2.0000    0.0000    0.0000    0.0000

        1 N1     1s         0.6895   -0.7130    0.2900    0.0000    0.0000    0.0504    0.1340    0.0000    0.0000    0.0000
        2 N1     2s         0.0039   -0.0356   -0.2298   -0.0000    0.0000    0.2153   -0.2575   -0.0000    0.0000    0.0000
        3 N1     *s         0.0019   -0.0344   -0.1182   -0.0000    0.0000    0.3418   -0.3195    0.0000   -0.0000    0.0000
        4 N1     2px        0.0204   -0.0121   -0.3596    0.0000   -0.0000   -0.5864    0.2755   -0.0000   -0.0000   -0.0000
        5 N1     *px        0.0035   -0.0084   -0.0218    0.0000    0.0000   -0.2033    0.2066    0.0000   -0.0000    0.0000
        6 N1     2py        0.0000    0.0000   -0.0000    0.3516   -0.3513   -0.0000    0.0000    0.0003    0.2878   -0.4339
        7 N1     *py       -0.0000    0.0000    0.0000    0.0613   -0.0613   -0.0000    0.0000    0.0016    1.7181    0.6107
        8 N1     2pz       -0.0000    0.0000    0.0000    0.3513    0.3516    0.0000    0.0000   -0.2878    0.0003   -0.0040
        9 N1     *pz       -0.0000   -0.0000    0.0000    0.0613    0.0613    0.0000    0.0000   -1.7181    0.0016    0.0056
       10 N1     *200       0.0085    0.0007   -0.0633    0.0000   -0.0000   -0.0758   -0.0007   -0.0000   -0.0000   -0.0000
       11 N1     *110       0.0000    0.0000   -0.0000    0.0359   -0.0359   -0.0000   -0.0000    0.0000    0.0179   -0.0486
       12 N1     *101      -0.0000   -0.0000    0.0000    0.0359    0.0359    0.0000   -0.0000   -0.0179    0.0000   -0.0004
       13 N1     *020      -0.0032    0.0035   -0.0009    0.0000    0.0000    0.0018   -0.0039    0.0000   -0.0000    0.0000
       14 N1     *011       0.0000   -0.0000   -0.0000   -0.0000    0.0000   -0.0000    0.0000   -0.0000    0.0000    0.0000
       15 N1     *002      -0.0032    0.0035   -0.0009   -0.0000   -0.0000    0.0018   -0.0039    0.0000   -0.0000   -0.0000
       16 N2     1s         0.6895    0.7130    0.2900   -0.0000    0.0000    0.0504   -0.1340   -0.0000   -0.0000    0.0000
       17 N2     2s         0.0039    0.0356   -0.2298   -0.0000    0.0000    0.2153    0.2575    0.0000    0.0000    0.0000
       18 N2     *s         0.0019    0.0344   -0.1182    0.0000   -0.0000    0.3418    0.3195   -0.0000    0.0000   -0.0000
       19 N2     2px       -0.0204   -0.0121    0.3596   -0.0000   -0.0000    0.5864    0.2755    0.0000    0.0000    0.0000
       20 N2     *px       -0.0035   -0.0084    0.0218   -0.0000    0.0000    0.2033    0.2066    0.0000   -0.0000    0.0000
       21 N2     2py       -0.0000   -0.0000    0.0000    0.3516   -0.3513    0.0000   -0.0000   -0.0003   -0.2878   -0.4339
       22 N2     *py        0.0000   -0.0000   -0.0000    0.0613   -0.0613    0.0000   -0.0000   -0.0016   -1.7181    0.6107
       23 N2     2pz        0.0000    0.0000   -0.0000    0.3513    0.3516   -0.0000   -0.0000    0.2878   -0.0003   -0.0040
       24 N2     *pz       -0.0000   -0.0000   -0.0000    0.0613    0.0613   -0.0000    0.0000    1.7181   -0.0016    0.0056
       25 N2     *200       0.0085   -0.0007   -0.0633    0.0000   -0.0000   -0.0758    0.0007   -0.0000   -0.0000   -0.0000
       26 N2     *110       0.0000    0.0000   -0.0000   -0.0359    0.0359   -0.0000    0.0000    0.0000    0.0179    0.0486
       27 N2     *101      -0.0000    0.0000    0.0000   -0.0359   -0.0359    0.0000   -0.0000   -0.0179    0.0000    0.0004
       28 N2     *020      -0.0032   -0.0035   -0.0009   -0.0000    0.0000    0.0018    0.0039   -0.0000   -0.0000    0.0000
       29 N2     *011      -0.0000   -0.0000    0.0000   -0.0000   -0.0000   -0.0000   -0.0000    0.0000   -0.0000   -0.0000
       30 N2     *002      -0.0032   -0.0035   -0.0009   -0.0000    0.0000    0.0018    0.0039   -0.0000    0.0000   -0.0000

          Orbital           11        12        13        14    
          Energy            0.6270    0.6467    0.6852    0.8355
          Occ. No.          0.0000    0.0000    0.0000    0.0000

        1 N1     1s         0.0000    0.0725    0.0068   -0.0265
        2 N1     2s        -0.0000   -0.1717    0.0765    0.5332
        3 N1     *s        -0.0000  -28.2915    0.3938   -0.9791
        4 N1     2px        0.0000    0.1276    0.3566   -0.1218
        5 N1     *px       -0.0000   -8.1495   -1.5770   -0.5119
        6 N1     2py        0.0040    0.0000    0.0000   -0.0000
        7 N1     *py       -0.0056    0.0000    0.0000    0.0000
        8 N1     2pz       -0.4339    0.0000   -0.0000    0.0000
        9 N1     *pz        0.6107   -0.0000    0.0000   -0.0000
       10 N1     *200      -0.0000   -0.0214   -0.0670    0.2712
       11 N1     *110       0.0004    0.0000    0.0000   -0.0000
       12 N1     *101      -0.0486    0.0000    0.0000    0.0000
       13 N1     *020      -0.0000    0.0276   -0.0072    0.1163
       14 N1     *011      -0.0000    0.0000    0.0000   -0.0000
       15 N1     *002      -0.0000    0.0276   -0.0072    0.1163
       16 N2     1s         0.0000   -0.0725    0.0068   -0.0265
       17 N2     2s         0.0000    0.1717    0.0765    0.5332
       18 N2     *s         0.0000   28.2915    0.3938   -0.9791
       19 N2     2px       -0.0000    0.1276   -0.3566    0.1218
       20 N2     *px       -0.0000   -8.1495    1.5770    0.5119
       21 N2     2py        0.0040   -0.0000   -0.0000    0.0000
       22 N2     *py       -0.0056    0.0000   -0.0000   -0.0000
       23 N2     2pz       -0.4339    0.0000    0.0000   -0.0000
       24 N2     *pz        0.6107   -0.0000   -0.0000    0.0000
       25 N2     *200       0.0000    0.0214   -0.0670    0.2712
       26 N2     *110      -0.0004    0.0000    0.0000   -0.0000
       27 N2     *101       0.0486   -0.0000   -0.0000    0.0000
       28 N2     *020       0.0000   -0.0276   -0.0072    0.1163
       29 N2     *011       0.0000   -0.0000    0.0000   -0.0000
       30 N2     *002      -0.0000   -0.0276   -0.0072    0.1163
--


++    Molecular charges:
      ------------------

      Mulliken charges per centre and basis function type
      ---------------------------------------------------

                N1      N2    
      1s       1.9984  1.9984
      2s       0.6776  0.6776
      2px      1.2712  1.2712
      2pz      0.8520  0.8520
      2py      0.8520  0.8520
      *s       0.7069  0.7069
      *px      0.3460  0.3460
      *pz      0.1107  0.1107
      *py      0.1107  0.1107
      *200    -0.0127 -0.0127
      *110     0.0373  0.0373
      *101     0.0373  0.0373
      *020     0.0063  0.0063
      *011     0.0000  0.0000
      *002     0.0063  0.0063
      Total    7.0000  7.0000

      N-E      0.0000 -0.0000

      Total electronic charge=   14.000000

      Total            charge=   -0.000000
--


++    Molecular properties:
      ---------------------

      Charge (e):
                      =   -0.0000
      Dipole Moment (Debye):
      Origin of the operator (Ang)=    0.0000    0.0000    0.0000
                   X= -2.9585E-10               Y=  5.5605E-16               Z=  1.9054E-16           Total=  2.9585E-10
      Quadrupole Moment (Debye*Ang):
      Origin of the operator (Ang)=    0.3000    0.0000    0.0000
                  XX= -1.0763E+01              XY= -1.9267E-16              XZ= -9.8713E-17              YY= -7.9014E+00
                  YZ=  6.1932E-15              ZZ= -7.9014E+00
      In traceless form (Debye*Ang)
                  XX= -2.8617E+00              XY= -2.8901E-16              XZ= -1.4807E-16              YY=  1.4309E+00
                  YZ=  9.2898E-15              ZZ=  1.4309E+00
--


      Input file to MOLDEN was generated!

 ###############################################################################
 ###############################################################################
 ###                                                                         ###
 ###                                                                         ###
 ###    WARNING: RunFile label nBas                                          ###
 ###    was used       60 times                                              ###
 ###                                                                         ###
 ###                                                                         ###
 ###############################################################################
 ###############################################################################
--- Stop Module: scf at Tue Jun  4 14:23:36 2024 /rc=_RC_ALL_IS_WELL_ ---
*** files: n2.scf.molden n2.ScfOrb xmldump
    saved to directory /home/kenya/molcas_test/0604

*** symbolic link created: INPORB -> n2.ScfOrb
--- Start Module: mbpt2 at Tue Jun  4 14:23:36 2024 ---

()()()()()()()()()()()()()()()()()()()()()()()()()()()()()()()()()()()()()()()()()()()()()()()()()()

                                               &MBPT2

                                   only a single process is used
                       available to each process: 2.0 GB of memory, 1 thread
                                             pid: 57027
()()()()()()()()()()()()()()()()()()()()()()()()()()()()()()()()()()()()()()()()()()()()()()()()()()


      Cartesian coordinates in Angstrom:
      -----------------------------------------------------
      No.  Label        X            Y            Z        
      -----------------------------------------------------
       1   N1         0.00000000   0.00000000   0.00000000
       2   N2         0.60000000   0.00000000   0.00000000
      -----------------------------------------------------
      Nuclear repulsion energy =   43.21613889

      Contents of RUNFILE file:
      -------------------------

      Symmetry species                           1
                                                 a
      Number of basis functions                 30
      Frozen occupied orbitals                   2
      Active occupied orbitals                   5
      Active external orbitals                  23
      Deleted external orbitals                  0


      Reference numbers of frozen occupied orbitals according to the original input sequence
      symmetry species 1                        1  2


      Energies of the active occupied orbitals

      symmetry species 1                    -1.602586     -0.997838     -0.997838     -0.640570     -0.582625


      Energies of the active external orbitals

      symmetry species 1                     0.474243      0.474243      0.626954      0.626954      0.646682
                                             0.685208      0.835450      1.295460      1.295460      1.403892
                                             1.651122      1.651122      2.580799      2.585492      2.585492
                                             2.694273      2.694273      2.905191      3.664892      4.080034
                                             4.080034      4.371177     10.256760


      ********************************************************************************************************
      *                                               Results                                                *
      ********************************************************************************************************

 Conventional algorithm used...

      Input file to MOLDEN was generated!


       SCF energy                           =     -106.0418600341 a.u.
       Second-order correlation energy      =       -0.1976165294 a.u.

       Total energy                         =     -106.2394765635 a.u.
       Reference weight ( Cref**2 )         =        0.95791

::    Total MBPT2 energy                             -106.2394765635


++    Molecular properties:
      ---------------------

      Charge (e):
                      =   -0.0000
      Dipole Moment (Debye):
      Origin of the operator (Ang)=    0.0000    0.0000    0.0000
                   X= -3.0333E-10               Y=  5.6114E-16               Z=  1.8706E-16           Total=  3.0333E-10
      Quadrupole Moment (Debye*Ang):
      Origin of the operator (Ang)=    0.3000    0.0000    0.0000
                  XX= -1.0857E+01              XY= -1.8274E-16              XZ= -6.3562E-17              YY= -7.9814E+00
                  YZ=  5.8725E-15              ZZ= -7.9814E+00
      In traceless form (Debye*Ang)
                  XX= -2.8761E+00              XY= -2.7411E-16              XZ= -9.5343E-17              YY=  1.4380E+00
                  YZ=  8.8088E-15              ZZ=  1.4380E+00
--


       Zeroth-order energy (E0)             =      -29.5336115259 a.u.

       Shanks-type energy S1(E)             =     -106.2399883178 a.u.




       Data processing and timing information:

       Section                                              time(sec)
                                                          CPU  Elapsed

      Input data processing                              0.08      0.08
      Transformation of integrals                        0.08      0.10
      MBPT2 calculations (BJAI)                          0.19      0.24
      Total MBPT2 calculations                           0.35      0.42


 ###############################################################################
 ###############################################################################
 ###                                                                         ###
 ###                                                                         ###
 ###    WARNING: RunFile label nBas                                          ###
 ###    was used       54 times                                              ###
 ###                                                                         ###
 ###                                                                         ###
 ###############################################################################
 ###############################################################################
--- Stop Module: mbpt2 at Tue Jun  4 14:23:36 2024 /rc=_RC_ALL_IS_WELL_ ---
*** files: n2.mp2.molden n2.MP2Orb xmldump
    saved to directory /home/kenya/molcas_test/0604

>>> EVAL DIST = 0.6 + 0.1 = 0.7

>>> END FOREACH

>>> EXPORT L = 3

*** symbolic link created: INPORB -> n2.ScfOrb
--- Start Module: gateway at Tue Jun  4 14:23:36 2024 ---

()()()()()()()()()()()()()()()()()()()()()()()()()()()()()()()()()()()()()()()()()()()()()()()()()()

                                              &GATEWAY

                                   only a single process is used
                       available to each process: 2.0 GB of memory, 1 thread
                                             pid: 57045
()()()()()()()()()()()()()()()()()()()()()()()()()()()()()()()()()()()()()()()()()()()()()()()()()()


++    Symmetry information:
      ---------------------

                    Character Table for C1 

                             E  
                    a        1  x, y, xy, Rz, z, xz, Ry, yz, Rx, I
--


++    Basis set information:
      ----------------------


      Basis set label: N.6-31G**....

      Electronic valence basis set:
      ------------------
      Associated Effective Charge   7.000000 au
      Associated Actual Charge      7.000000 au
      Nuclear Model: Point charge

      Shell  nPrim  nBasis  Cartesian Spherical Contaminant
         s      10       3        X                  
         p       4       2        X                  
         d       1       1        X                  
--


++    Molecular structure info:
      -------------------------

                    ************************************************ 
                    **** Cartesian Coordinates / Bohr, Angstrom **** 
                    ************************************************ 

     Center  Label                x              y              z                     x              y              z
        1      N1               0.000000       0.000000       0.000000              0.000000       0.000000       0.000000
        2      N2               1.322808       0.000000       0.000000              0.700000       0.000000       0.000000
--


            Nuclear Potential Energy             37.04240476 au

--- Stop Module: gateway at Tue Jun  4 14:23:37 2024 /rc=_RC_ALL_IS_WELL_ ---
*** files: xmldump
    saved to directory /home/kenya/molcas_test/0604

*** symbolic link created: INPORB -> n2.ScfOrb
--- Start Module: seward at Tue Jun  4 14:23:37 2024 ---

()()()()()()()()()()()()()()()()()()()()()()()()()()()()()()()()()()()()()()()()()()()()()()()()()()

                                              &SEWARD

                                   only a single process is used
                       available to each process: 2.0 GB of memory, 1 thread
                                             pid: 57051
()()()()()()()()()()()()()()()()()()()()()()()()()()()()()()()()()()()()()()()()()()()()()()()()()()

               SEWARD will generate:
                  Multipole Moment integrals up to order  2
                  Kinetic Energy integrals
                  Nuclear Attraction integrals (point charge)
                  One-Electron Hamiltonian integrals
                  Velocity integrals
                  Orbital angular momentum around ( 0.6614  0.0000  0.0000 )
                  Velocity quadrupole around ( 0.6614  0.0000  0.0000 )
                  Two-Electron Repulsion integrals

                   Integrals are discarded if absolute value <: 1.00E-14
                   Integral cutoff threshold is set to       <: 1.00E-16

            Nuclear Potential Energy             37.04240476 au


      Basis set specifications :
      Symmetry species         a  
      Basis functions           30


      Input file to MOLDEN was generated!

--- Stop Module: seward at Tue Jun  4 14:23:38 2024 /rc=_RC_ALL_IS_WELL_ ---
*** files: n2.GssOrb n2.guessorb.molden xmldump
    saved to directory /home/kenya/molcas_test/0604
--- Module seward spent 1 second ---

*** symbolic link created: INPORB -> n2.ScfOrb
--- Start Module: scf at Tue Jun  4 14:23:38 2024 ---

()()()()()()()()()()()()()()()()()()()()()()()()()()()()()()()()()()()()()()()()()()()()()()()()()()

                                                &SCF

                                   only a single process is used
                       available to each process: 2.0 GB of memory, 1 thread
                                             pid: 57072
()()()()()()()()()()()()()()()()()()()()()()()()()()()()()()()()()()()()()()()()()()()()()()()()()()

++    Input section:
      --------------

      Header of the integral files:
      
       Integrals generated by Gateway/Seward, Tue Jun  4 14:23:37 2024


      Cartesian coordinates in Angstrom:
      -----------------------------------------------------
      No.  Label        X            Y            Z        
      -----------------------------------------------------
       1   N1         0.00000000   0.00000000   0.00000000
       2   N2         0.70000000   0.00000000   0.00000000
      -----------------------------------------------------
      Nuclear repulsion energy =   37.04240476
--

++    Orbital specifications:
      -----------------------

      Symmetry species               1
                                     a
      Frozen orbitals                0
      Occupied orbitals              7
      Secondary orbitals            23
      Deleted orbitals               0
      Total number of orbitals      30
      Number of basis functions     30
--

      Molecular charge                           0.000

++    Optimization specifications:
      ----------------------------

      SCF Algorithm: Conventional
      Minimized density differences are used
      Number of density matrices in core                 5
      Maximum number of NDDO SCF iterations            400
      Maximum number of HF SCF iterations              400
      Threshold for SCF energy change             1.00E-09
      Threshold for density matrix                1.00E-04
      Threshold for Fock matrix                   1.50E-04
      Threshold for linear dependence             1.00E-09
      Threshold at which DIIS is turned on        1.50E-01
      Maximum depth in the DIIS procedure                5
      Maximum depth in the BFGS Hessian update          30
      Threshold at which QNR/C2DIIS is turned on  7.50E-02
      Threshold for Norm(delta) (QNR/C2DIIS)      1.00E-03
      All orbitals punched on: SCFORB
--

      Input vectors read from INPORB
      Orbital file label: * SCF orbitals


++ Convergence information
                                   SCF        iterations: Energy and convergence statistics

Iter     Tot. SCF        One-elec.       Two-elec.     Energy      Max Dij or  Max Fij      DNorm      TNorm      AccCon     Time
         Energy          Energy          Energy        Change      Delta Norm                                                in Sec.
   1  -107.564625837  -218.151915429    73.544884829   0.00E+00    1.03E-01*   9.99E-02*    4.75E+00   9.92E+01   None         0.
   2  -107.597896875  -217.070308027    72.430006389  -3.33E-02*   2.16E-02*   2.05E-02*    6.11E-01   9.86E+01   EDIIS        0.
   3  -107.599311871  -217.294551941    72.652835306  -1.41E-03*   6.90E-03*   5.40E-03*    3.17E-01   9.87E+01   c2DIIS       0.
   4  -107.599407510  -217.249096173    72.607283900  -9.56E-05*   1.35E-03*   1.17E-03*    2.26E-02   9.87E+01   QNRc2DIIS    0.
   5  -107.599414362  -217.262996792    72.621177667  -6.85E-06*   5.51E-04    3.81E-04*    1.89E-03   9.87E+01   QNRc2DIIS    0.
   6  -107.599415033  -217.261414987    72.619595191  -6.72E-07*   2.14E-05    2.55E-05     2.54E-04   9.87E+01   QNRc2DIIS    0.
   7  -107.599415035  -217.261345642    72.619525843  -1.93E-09*   5.27E-06    5.61E-06     2.20E-05   9.87E+01   QNRc2DIIS    0.
 DIIS_X: Reduction of the subspace dimension due to numerical imbalance of the values in the B-Matrix
 kOptim=                    5 -> kOptim=                    4
   8  -107.599415035  -217.261348399    72.619528601  -8.70E-11    1.49E-07    1.42E-07     3.09E-05   9.87E+01   QNRc2DIIS    0.

       Convergence after   8 Macro Iterations
--

 *****************************************************************************************************************************
 *                                                                                                                           *
 *                                             SCF/KS-DFT Program, Final results                                             *
 *                                                                                                                           *
 *                                                                                                                           *
 *                                                                                                                           *
 *                                                       Final Results                                                       *
 *                                                                                                                           *
 *****************************************************************************************************************************

::    Total SCF energy                               -107.5994150351
      One-electron energy                            -217.2613483991
      Two-electron energy                              72.6195286007
      Nuclear repulsion energy                         37.0424047632
      Kinetic energy (interpolated)                   114.4731512380
      Virial theorem                                    0.9399532892
      Total spin, S(S+1)                                0.0000000000
      Total spin, S                                     0.0000000000
      Max non-diagonal density matrix element           0.0000002056
      Max non-diagonal Fock matrix element              0.0000000172


      All orbitals with orbital energies smaller than  E(LUMO)+0.5 are printed

++    Molecular orbitals:
      -------------------

      Title: SCF orbitals

      Molecular orbitals for symmetry species 1: a  

          Orbital            1         2         3         4         5         6         7         8         9        10    
          Energy          -15.7001  -15.6063   -1.6769   -0.8766   -0.8766   -0.6496   -0.6250    0.4156    0.4156    0.6424
          Occ. No.          2.0000    2.0000    2.0000    2.0000    2.0000    2.0000    2.0000    0.0000    0.0000    0.0000

        1 N1     1s         0.6970   -0.7076    0.2493   -0.0000    0.0000   -0.0003    0.1346    0.0000   -0.0000    0.0722
        2 N1     2s         0.0145   -0.0276   -0.2650   -0.0000   -0.0000    0.1631   -0.2693   -0.0000   -0.0000   -0.1836
        3 N1     *s         0.0021   -0.0108   -0.1231   -0.0000    0.0000    0.3487   -0.4755    0.0000    0.0000  -17.6475
        4 N1     2px        0.0090   -0.0082   -0.3288    0.0000   -0.0000   -0.5026    0.2690   -0.0000    0.0000    0.1104
        5 N1     *px        0.0008   -0.0030   -0.0209   -0.0000    0.0000   -0.1834    0.1481    0.0000    0.0000   -6.1482
        6 N1     2py        0.0000    0.0000   -0.0000    0.4804   -0.0086   -0.0000    0.0000    0.0001   -0.3280    0.0000
        7 N1     *py       -0.0000    0.0000    0.0000    0.1283   -0.0023   -0.0000    0.0000    0.0004   -1.3819   -0.0000
        8 N1     2pz       -0.0000    0.0000    0.0000    0.0086    0.4804    0.0000    0.0000   -0.3280   -0.0001   -0.0000
        9 N1     *pz       -0.0000   -0.0000    0.0000    0.0023    0.1283    0.0000    0.0000   -1.3819   -0.0004    0.0000
       10 N1     *200       0.0022    0.0004   -0.0473    0.0000   -0.0000   -0.0453    0.0015   -0.0000    0.0000   -0.0278
       11 N1     *110       0.0000    0.0000   -0.0000    0.0528   -0.0009   -0.0000   -0.0000    0.0000   -0.0094    0.0000
       12 N1     *101      -0.0000   -0.0000    0.0000    0.0009    0.0528    0.0000   -0.0000   -0.0094   -0.0000    0.0000
       13 N1     *020      -0.0031    0.0026    0.0078    0.0000    0.0000    0.0084   -0.0031    0.0000    0.0000    0.0224
       14 N1     *011       0.0000    0.0000   -0.0000   -0.0000   -0.0000   -0.0000    0.0000   -0.0000   -0.0000    0.0000
       15 N1     *002      -0.0031    0.0026    0.0078    0.0000   -0.0000    0.0084   -0.0031    0.0000    0.0000    0.0224
       16 N2     1s         0.6970    0.7076    0.2493   -0.0000    0.0000   -0.0003   -0.1346   -0.0000    0.0000   -0.0722
       17 N2     2s         0.0145    0.0276   -0.2650   -0.0000    0.0000    0.1631    0.2693    0.0000   -0.0000    0.1836
       18 N2     *s         0.0021    0.0108   -0.1231    0.0000   -0.0000    0.3487    0.4755   -0.0000   -0.0000   17.6475
       19 N2     2px       -0.0090   -0.0082    0.3288   -0.0000   -0.0000    0.5026    0.2690    0.0000   -0.0000    0.1104
       20 N2     *px       -0.0008   -0.0030    0.0209   -0.0000    0.0000    0.1834    0.1481    0.0000    0.0000   -6.1482
       21 N2     2py       -0.0000   -0.0000    0.0000    0.4804   -0.0086    0.0000   -0.0000   -0.0001    0.3280   -0.0000
       22 N2     *py        0.0000   -0.0000   -0.0000    0.1283   -0.0023    0.0000   -0.0000   -0.0004    1.3819    0.0000
       23 N2     2pz        0.0000    0.0000   -0.0000    0.0086    0.4804   -0.0000   -0.0000    0.3280    0.0001   -0.0000
       24 N2     *pz       -0.0000   -0.0000   -0.0000    0.0023    0.1283   -0.0000    0.0000    1.3819    0.0004   -0.0000
       25 N2     *200       0.0022   -0.0004   -0.0473    0.0000   -0.0000   -0.0453   -0.0015   -0.0000    0.0000    0.0278
       26 N2     *110       0.0000    0.0000   -0.0000   -0.0528    0.0009   -0.0000    0.0000    0.0000   -0.0094    0.0000
       27 N2     *101      -0.0000    0.0000    0.0000   -0.0009   -0.0528    0.0000   -0.0000   -0.0094   -0.0000    0.0000
       28 N2     *020      -0.0031   -0.0026    0.0078   -0.0000   -0.0000    0.0084    0.0031   -0.0000    0.0000   -0.0224
       29 N2     *011      -0.0000   -0.0000   -0.0000    0.0000   -0.0000   -0.0000   -0.0000    0.0000    0.0000   -0.0000
       30 N2     *002      -0.0031   -0.0026    0.0078   -0.0000    0.0000    0.0084    0.0031   -0.0000   -0.0000   -0.0224

          Orbital           11        12        13        14    
          Energy            0.6779    0.6779    0.6938    0.8371
          Occ. No.          0.0000    0.0000    0.0000    0.0000

        1 N1     1s         0.0000   -0.0000    0.0184   -0.0190
        2 N1     2s         0.0000    0.0000    0.1733    0.5920
        3 N1     *s         0.0000    0.0000    0.2482   -1.0368
        4 N1     2px       -0.0000   -0.0000    0.3490   -0.2262
        5 N1     *px        0.0000    0.0000   -1.4303   -0.2050
        6 N1     2py       -0.4796   -0.0019   -0.0000   -0.0000
        7 N1     *py        0.6120    0.0024    0.0000    0.0000
        8 N1     2pz        0.0019   -0.4796   -0.0000    0.0000
        9 N1     *pz       -0.0024    0.6120    0.0000   -0.0000
       10 N1     *200      -0.0000   -0.0000   -0.0395    0.2470
       11 N1     *110      -0.0667   -0.0003    0.0000   -0.0000
       12 N1     *101       0.0003   -0.0667    0.0000    0.0000
       13 N1     *020       0.0000   -0.0000    0.0010    0.1136
       14 N1     *011       0.0000   -0.0000    0.0000    0.0000
       15 N1     *002      -0.0000   -0.0000    0.0010    0.1136
       16 N2     1s         0.0000    0.0000    0.0184   -0.0190
       17 N2     2s         0.0000    0.0000    0.1733    0.5920
       18 N2     *s        -0.0000   -0.0000    0.2482   -1.0368
       19 N2     2px        0.0000   -0.0000   -0.3490    0.2262
       20 N2     *px        0.0000    0.0000    1.4303    0.2050
       21 N2     2py       -0.4796   -0.0019   -0.0000    0.0000
       22 N2     *py        0.6120    0.0024    0.0000   -0.0000
       23 N2     2pz        0.0019   -0.4796    0.0000   -0.0000
       24 N2     *pz       -0.0024    0.6120   -0.0000    0.0000
       25 N2     *200      -0.0000    0.0000   -0.0395    0.2470
       26 N2     *110       0.0667    0.0003    0.0000   -0.0000
       27 N2     *101      -0.0003    0.0667   -0.0000    0.0000
       28 N2     *020       0.0000    0.0000    0.0010    0.1136
       29 N2     *011      -0.0000    0.0000    0.0000   -0.0000
       30 N2     *002      -0.0000    0.0000    0.0010    0.1136
--


++    Molecular charges:
      ------------------

      Mulliken charges per centre and basis function type
      ---------------------------------------------------

                N1      N2    
      1s       1.9978  1.9978
      2s       0.7323  0.7323
      2px      1.1762  1.1762
      2pz      0.7867  0.7867
      2py      0.7867  0.7867
      *s       0.8270  0.8270
      *px      0.2489  0.2489
      *pz      0.1748  0.1748
      *py      0.1748  0.1748
      *200     0.0231  0.0231
      *110     0.0385  0.0385
      *101     0.0385  0.0385
      *020    -0.0026 -0.0026
      *011     0.0000  0.0000
      *002    -0.0026 -0.0026
      Total    7.0000  7.0000

      N-E      0.0000 -0.0000

      Total electronic charge=   14.000000

      Total            charge=   -0.000000
--


++    Molecular properties:
      ---------------------

      Charge (e):
                      =   -0.0000
      Dipole Moment (Debye):
      Origin of the operator (Ang)=    0.0000    0.0000    0.0000
                   X= -1.6931E-12               Y=  5.8513E-16               Z=  1.6614E-16           Total=  1.6931E-12
      Quadrupole Moment (Debye*Ang):
      Origin of the operator (Ang)=    0.3500    0.0000    0.0000
                  XX= -1.0925E+01              XY= -3.8001E-16              XZ=  1.5156E-16              YY= -8.4372E+00
                  YZ= -6.3990E-17              ZZ= -8.4372E+00
      In traceless form (Debye*Ang)
                  XX= -2.4878E+00              XY= -5.7002E-16              XZ=  2.2734E-16              YY=  1.2439E+00
                  YZ= -9.5985E-17              ZZ=  1.2439E+00
--


      Input file to MOLDEN was generated!

 ###############################################################################
 ###############################################################################
 ###                                                                         ###
 ###                                                                         ###
 ###    WARNING: RunFile label nBas                                          ###
 ###    was used       60 times                                              ###
 ###                                                                         ###
 ###                                                                         ###
 ###############################################################################
 ###############################################################################
--- Stop Module: scf at Tue Jun  4 14:23:39 2024 /rc=_RC_ALL_IS_WELL_ ---
*** files: n2.scf.molden n2.ScfOrb xmldump
    saved to directory /home/kenya/molcas_test/0604

*** symbolic link created: INPORB -> n2.ScfOrb
--- Start Module: mbpt2 at Tue Jun  4 14:23:39 2024 ---

()()()()()()()()()()()()()()()()()()()()()()()()()()()()()()()()()()()()()()()()()()()()()()()()()()

                                               &MBPT2

                                   only a single process is used
                       available to each process: 2.0 GB of memory, 1 thread
                                             pid: 57077
()()()()()()()()()()()()()()()()()()()()()()()()()()()()()()()()()()()()()()()()()()()()()()()()()()


      Cartesian coordinates in Angstrom:
      -----------------------------------------------------
      No.  Label        X            Y            Z        
      -----------------------------------------------------
       1   N1         0.00000000   0.00000000   0.00000000
       2   N2         0.70000000   0.00000000   0.00000000
      -----------------------------------------------------
      Nuclear repulsion energy =   37.04240476

      Contents of RUNFILE file:
      -------------------------

      Symmetry species                           1
                                                 a
      Number of basis functions                 30
      Frozen occupied orbitals                   2
      Active occupied orbitals                   5
      Active external orbitals                  23
      Deleted external orbitals                  0


      Reference numbers of frozen occupied orbitals according to the original input sequence
      symmetry species 1                        1  2


      Energies of the active occupied orbitals

      symmetry species 1                    -1.676948     -0.876588     -0.876588     -0.649564     -0.624987


      Energies of the active external orbitals

      symmetry species 1                     0.415621      0.415621      0.642371      0.677879      0.677879
                                             0.693783      0.837097      1.198274      1.198274      1.395372
                                             1.649982      1.649982      2.350350      2.415952      2.415952
                                             2.596375      2.596375      2.851658      3.650630      3.650630
                                             3.657774      4.413471      7.066408


      ********************************************************************************************************
      *                                               Results                                                *
      ********************************************************************************************************

 Conventional algorithm used...

      Input file to MOLDEN was generated!


       SCF energy                           =     -107.5994150351 a.u.
       Second-order correlation energy      =       -0.2167031238 a.u.

       Total energy                         =     -107.8161181589 a.u.
       Reference weight ( Cref**2 )         =        0.95109

::    Total MBPT2 energy                             -107.8161181589


++    Molecular properties:
      ---------------------

      Charge (e):
                      =   -0.0000
      Dipole Moment (Debye):
      Origin of the operator (Ang)=    0.0000    0.0000    0.0000
                   X= -1.7880E-12               Y=  5.9810E-16               Z=  1.7390E-16           Total=  1.7880E-12
      Quadrupole Moment (Debye*Ang):
      Origin of the operator (Ang)=    0.3500    0.0000    0.0000
                  XX= -1.1028E+01              XY= -3.7029E-16              XZ=  1.9806E-16              YY= -8.4933E+00
                  YZ= -6.7797E-17              ZZ= -8.4933E+00
      In traceless form (Debye*Ang)
                  XX= -2.5348E+00              XY= -5.5544E-16              XZ=  2.9708E-16              YY=  1.2674E+00
                  YZ= -1.0170E-16              ZZ=  1.2674E+00
--


       Zeroth-order energy (E0)             =      -34.9798864344 a.u.

       Shanks-type energy S1(E)             =     -107.8167667557 a.u.




       Data processing and timing information:

       Section                                              time(sec)
                                                          CPU  Elapsed

      Input data processing                              0.04      0.05
      Transformation of integrals                        0.17      0.17
      MBPT2 calculations (BJAI)                          0.21      0.22
      Total MBPT2 calculations                           0.42      0.44


 ###############################################################################
 ###############################################################################
 ###                                                                         ###
 ###                                                                         ###
 ###    WARNING: RunFile label nBas                                          ###
 ###    was used       54 times                                              ###
 ###                                                                         ###
 ###                                                                         ###
 ###############################################################################
 ###############################################################################
--- Stop Module: mbpt2 at Tue Jun  4 14:23:39 2024 /rc=_RC_ALL_IS_WELL_ ---
*** files: n2.mp2.molden n2.MP2Orb xmldump
    saved to directory /home/kenya/molcas_test/0604

>>> EVAL DIST = 0.7 + 0.1 = 0.7999999999999999

>>> END FOREACH

>>> EXPORT L = 4

*** symbolic link created: INPORB -> n2.ScfOrb
--- Start Module: gateway at Tue Jun  4 14:23:39 2024 ---

()()()()()()()()()()()()()()()()()()()()()()()()()()()()()()()()()()()()()()()()()()()()()()()()()()

                                              &GATEWAY

                                   only a single process is used
                       available to each process: 2.0 GB of memory, 1 thread
                                             pid: 57083
()()()()()()()()()()()()()()()()()()()()()()()()()()()()()()()()()()()()()()()()()()()()()()()()()()


++    Symmetry information:
      ---------------------

                    Character Table for C1 

                             E  
                    a        1  x, y, xy, Rz, z, xz, Ry, yz, Rx, I
--


++    Basis set information:
      ----------------------


      Basis set label: N.6-31G**....

      Electronic valence basis set:
      ------------------
      Associated Effective Charge   7.000000 au
      Associated Actual Charge      7.000000 au
      Nuclear Model: Point charge

      Shell  nPrim  nBasis  Cartesian Spherical Contaminant
         s      10       3        X                  
         p       4       2        X                  
         d       1       1        X                  
--


++    Molecular structure info:
      -------------------------

                    ************************************************ 
                    **** Cartesian Coordinates / Bohr, Angstrom **** 
                    ************************************************ 

     Center  Label                x              y              z                     x              y              z
        1      N1               0.000000       0.000000       0.000000              0.000000       0.000000       0.000000
        2      N2               1.511781       0.000000       0.000000              0.800000       0.000000       0.000000
--


            Nuclear Potential Energy             32.41210417 au

--- Stop Module: gateway at Tue Jun  4 14:23:40 2024 /rc=_RC_ALL_IS_WELL_ ---
*** files: xmldump
    saved to directory /home/kenya/molcas_test/0604

*** symbolic link created: INPORB -> n2.ScfOrb
--- Start Module: seward at Tue Jun  4 14:23:40 2024 ---

[...]
 324  -108.183771859  -153.783567312    42.275477077  -2.23E-05*   1.73E-01*   8.53E-04*    1.07E-02   4.85E+01   QNRc2DIIS    0.
 325  -108.183770054  -153.784585400    42.276496969   1.80E-06*   2.82E-01*   7.32E-04*    6.11E-03   4.85E+01   QNRc2DIIS    0.
 326  -108.183744664  -153.782755723    42.274692683   2.54E-05*   2.67E-01*   1.42E-03*    2.83E-02   4.85E+01   QNRc2DIIS    0.
 327  -108.183749133  -153.780327365    42.272259856  -4.47E-06*   3.41E-02*   1.46E-03*    1.57E-02   4.85E+01   QNRc2DIIS    0.
 328  -108.183765661  -153.783354653    42.275270615  -1.65E-05*   1.10E-01*   1.00E-03*    1.07E-02   4.85E+01   QNRc2DIIS    0.
 329  -108.183765228  -153.783083960    42.275000357   4.34E-07*   2.95E-02*   5.09E-04*    6.73E-03   4.85E+01   QNRc2DIIS    0.
 330  -108.183757370  -153.783277234    42.275201487   7.86E-06*   4.58E-02*   7.07E-04*    4.93E-03   4.85E+01   QNRc2DIIS    0.
 331  -108.183708157  -153.782351093    42.274324560   4.92E-05*   7.66E-02*   2.37E-03*    1.58E-02   4.85E+01   QNRc2DIIS    0.
 332  -108.183778662  -153.782360514    42.274263476  -7.05E-05*   1.32E-01*   5.47E-04*    5.37E-03   4.85E+01   QNRc2DIIS    0.
 333  -108.183763231  -153.782059302    42.273977695   1.54E-05*   1.76E-01*   6.85E-04*    3.83E-03   4.85E+01   QNRc2DIIS    0.
 334  -108.183785099  -153.782400715    42.274297240  -2.19E-05*   3.66E-02*   5.81E-04*    7.06E-03   4.85E+01   QNRc2DIIS    0.
 335  -108.183780060  -153.783738633    42.275640197   5.04E-06*   6.23E-02*   9.37E-04*    8.32E-03   4.85E+01   QNRc2DIIS    0.
 336  -108.183778884  -153.782631769    42.274534509   1.18E-06*   2.04E-01*   1.29E-03*    9.81E-03   4.85E+01   QNRc2DIIS    0.
 337  -108.183704099  -153.781083654    42.273061178   7.48E-05*   2.12E-01*   4.52E-03*    6.82E-02   4.85E+01   QNRc2DIIS    0.
 DIIS_X: Resetting BFGS depth!
         Too large B matrix values.
 338  -108.183745848  -153.783728632    42.275664408  -4.17E-05*   1.01E-01*   2.52E-03*    1.58E-02   4.85E+01   QNRc2DIIS    0.
 339  -108.183791342  -153.782538780    42.274429062  -4.55E-05*   7.33E-02*   3.47E-04*    5.36E-03   4.85E+01   QNRc2DIIS    0.
 340  -108.183760276  -153.783945947    42.275867296   3.11E-05*   6.84E-02*   2.41E-03*    1.76E-03   4.85E+01   QNRc2DIIS    0.
 341  -108.183793290  -153.782889449    42.274777783  -3.30E-05*   8.72E-02*   2.99E-04*    1.03E-03   4.85E+01   QNRc2DIIS    0.
 342  -108.183779504  -153.782291682    42.274193802   1.38E-05*   2.40E-01*   3.01E-04*    9.56E-03   4.85E+01   QNRc2DIIS    0.
 343  -108.183767800  -153.783352082    42.275265905   1.17E-05*   1.89E-02*   2.69E-03*    1.27E-02   4.85E+01   QNRc2DIIS    0.
 344  -108.183786998  -153.783512322    42.275406948  -1.92E-05*   4.00E-02*   1.78E-03*    2.59E-03   4.85E+01   QNRc2DIIS    0.
 345  -108.183759926  -153.783596227    42.275517925   2.71E-05*   4.27E-03*   2.99E-03*    2.41E-03   4.85E+01   QNRc2DIIS    0.
 346  -108.183759105  -153.783621423    42.275543942   8.21E-07*   3.04E-01*   3.02E-03*    2.67E-04   4.85E+01   QNRc2DIIS    0.
 347  -108.183762304  -153.782236097    42.274155417  -3.20E-06*   3.13E-01*   6.02E-04*    1.18E-02   4.85E+01   QNRc2DIIS    0.
 348  -108.183801780  -153.782570842    42.274450686  -3.95E-05*   3.52E-02*   1.04E-03*    4.20E-03   4.85E+01   QNRc2DIIS    0.
 349  -108.183800211  -153.782560022    42.274441435   1.57E-06*   3.23E-01*   1.18E-03*    1.91E-03   4.85E+01   QNRc2DIIS    0.
 350  -108.183713792  -153.782355287    42.274323119   8.64E-05*   1.16E-01*   3.20E-03*    7.94E-02   4.85E+01   QNRc2DIIS    0.
 351  -108.183785093  -153.782924903    42.274821434  -7.13E-05*   8.19E-02*   1.05E-03*    2.93E-03   4.85E+01   QNRc2DIIS    0.
 352  -108.183733876  -153.782787923    42.274735671   5.12E-05*   1.18E-01*   2.78E-03*    5.87E-03   4.85E+01   QNRc2DIIS    0.
 353  -108.183795296  -153.782839299    42.274725626  -6.14E-05*   5.59E-02*   6.23E-04*    3.30E-03   4.85E+01   QNRc2DIIS    0.
 354  -108.183804658  -153.783005834    42.274882800  -9.36E-06*   1.56E-02*   3.01E-04*    2.49E-03   4.85E+01   QNRc2DIIS    0.
 355  -108.183806327  -153.783011095    42.274886391  -1.67E-06*   1.29E-01*   2.77E-04*    4.66E-04   4.85E+01   QNRc2DIIS    0.
 356  -108.183812907  -153.782897931    42.274766648  -6.58E-06*   5.66E-03*   3.58E-04*    3.47E-03   4.85E+01   QNRc2DIIS    0.
 357  -108.183812637  -153.782881975    42.274750962   2.70E-07*   7.99E-03*   3.80E-04*    4.08E-04   4.85E+01   QNRc2DIIS    0.
 358  -108.183813604  -153.782880806    42.274748826  -9.67E-07*   1.57E-02*   3.13E-04*    4.13E-04   4.85E+01   QNRc2DIIS    0.
 359  -108.183813474  -153.782888157    42.274756306   1.30E-07*   8.08E-02*   3.65E-04*    3.56E-04   4.85E+01   QNRc2DIIS    0.
 360  -108.183806737  -153.783359680    42.275234567   6.74E-06*   6.85E-02*   6.08E-04*    2.22E-03   4.85E+01   QNRc2DIIS    0.
 361  -108.183816071  -153.783084767    42.274950320  -9.33E-06*   2.05E-02*   7.27E-05     8.10E-04   4.85E+01   QNRc2DIIS    0.
 362  -108.183814988  -153.783023471    42.274890107   1.08E-06*   4.63E-02*   6.95E-05     7.28E-04   4.85E+01   QNRc2DIIS    0.
 363  -108.183810689  -153.783101352    42.274972287   4.30E-06*   4.81E-02*   1.85E-04*    1.30E-03   4.85E+01   QNRc2DIIS    0.
 364  -108.183815206  -153.783015520    42.274881939  -4.52E-06*   5.79E-02*   4.80E-05     4.68E-04   4.85E+01   QNRc2DIIS    0.
 365  -108.183816860  -153.782905891    42.274770654  -1.65E-06*   2.59E-02*   2.70E-04*    1.97E-03   4.85E+01   QNRc2DIIS    0.
 366  -108.183816811  -153.783065775    42.274930588   4.92E-08*   1.52E-02*   1.79E-04*    1.02E-03   4.85E+01   QNRc2DIIS    0.
 367  -108.183816092  -153.783170348    42.275035880   7.19E-07*   1.93E-02*   2.93E-04*    7.01E-04   4.85E+01   QNRc2DIIS    0.
 368  -108.183816859  -153.783044064    42.274908828  -7.67E-07*   2.41E-02*   2.42E-04*    3.08E-04   4.85E+01   QNRc2DIIS    0.
 369  -108.183817099  -153.783159380    42.275023904  -2.40E-07*   9.67E-03*   1.06E-04     5.56E-04   4.85E+01   QNRc2DIIS    0.
 370  -108.183817125  -153.783200445    42.275064943  -2.58E-08*   2.68E-03*   1.46E-04     2.68E-04   4.85E+01   QNRc2DIIS    0.
 371  -108.183817053  -153.783234851    42.275099422   7.22E-08*   1.39E-02*   1.56E-04*    1.12E-04   4.85E+01   QNRc2DIIS    0.
 372  -108.183816855  -153.782975586    42.274840355   1.98E-07*   8.79E-03*   3.09E-04*    1.09E-03   4.85E+01   QNRc2DIIS    0.
 373  -108.183817008  -153.782975593    42.274840208  -1.54E-07*   3.15E-02*   2.10E-04*    5.96E-04   4.85E+01   QNRc2DIIS    0.
 374  -108.183818386  -153.782563101    42.274426339  -1.38E-06*   1.81E-02*   1.45E-04     3.71E-03   4.85E+01   QNRc2DIIS    0.
 375  -108.183818806  -153.782854040    42.274716858  -4.20E-07*   7.59E-03*   2.12E-04*    1.51E-03   4.85E+01   QNRc2DIIS    0.
 376  -108.183818983  -153.782932209    42.274794850  -1.76E-07*   1.12E-02*   3.27E-05     6.32E-04   4.85E+01   QNRc2DIIS    0.
 377  -108.183819030  -153.782959690    42.274822283  -4.77E-08*   2.00E-02*   1.14E-04     4.65E-04   4.85E+01   QNRc2DIIS    0.
 378  -108.183818476  -153.782881371    42.274744519   5.54E-07*   2.19E-02*   3.91E-04*    9.37E-04   4.85E+01   QNRc2DIIS    0.
 379  -108.183818527  -153.782984568    42.274847665  -5.03E-08*   4.51E-03*   1.75E-04*    4.99E-04   4.85E+01   QNRc2DIIS    0.
 380  -108.183819181  -153.783081694    42.274944137  -6.55E-07*   4.29E-02*   8.47E-05     1.52E-03   4.85E+01   QNRc2DIIS    0.
 381  -108.183818259  -153.782904809    42.274768174   9.22E-07*   1.40E-01*   1.09E-04     1.54E-03   4.85E+01   QNRc2DIIS    0.
 382  -108.183770926  -153.782968041    42.274878738   4.73E-05*   6.56E-02*   2.95E-03*    9.02E-03   4.85E+01   QNRc2DIIS    0.
 383  -108.183818290  -153.782427209    42.274290543  -4.74E-05*   4.36E-03*   2.73E-04*    2.22E-03   4.85E+01   QNRc2DIIS    0.
 384  -108.183818652  -153.782923382    42.274786353  -3.62E-07*   1.04E-01*   3.28E-04*    1.07E-03   4.85E+01   QNRc2DIIS    0.
 385  -108.183813430  -153.782565112    42.274433305   5.22E-06*   8.71E-02*   8.28E-04*    2.41E-03   4.85E+01   QNRc2DIIS    0.
 386  -108.183819216  -153.782821472    42.274683879  -5.79E-06*   3.00E-02*   9.70E-05     1.04E-03   4.85E+01   QNRc2DIIS    0.
 387  -108.183816883  -153.782815487    42.274680227   2.33E-06*   2.37E-01*   6.48E-04*    1.15E-03   4.85E+01   QNRc2DIIS    0.
 388  -108.183738728  -153.782807974    42.274750870   7.82E-05*   2.08E-01*   2.37E-03*    4.41E-02   4.85E+01   QNRc2DIIS    0.
 389  -108.183816582  -153.782866439    42.274731481  -7.79E-05*   1.87E-02*   3.82E-04*    3.43E-03   4.85E+01   QNRc2DIIS    0.
 390  -108.183813475  -153.782914853    42.274783001   3.11E-06*   1.15E-01*   5.89E-04*    9.05E-04   4.85E+01   QNRc2DIIS    0.
 391  -108.183809791  -153.783137011    42.275008845   3.68E-06*   4.36E-02*   7.80E-04*    3.05E-03   4.85E+01   QNRc2DIIS    0.
 392  -108.183813389  -153.783335265    42.275203499  -3.60E-06*   7.24E-03*   6.84E-04*    2.15E-03   4.85E+01   QNRc2DIIS    0.
 393  -108.183812133  -153.782349280    42.274218771   1.26E-06*   2.95E-02*   6.35E-04*    2.62E-03   4.85E+01   QNRc2DIIS    0.
 394  -108.183816733  -153.783096224    42.274961114  -4.60E-06*   4.92E-02*   4.10E-04*    9.02E-03   4.85E+01   QNRc2DIIS    0.
 395  -108.183814363  -153.783078285    42.274945546   2.37E-06*   6.82E-02*   4.64E-04*    2.47E-03   4.85E+01   QNRc2DIIS    0.
 396  -108.183813049  -153.782933603    42.274802178   1.31E-06*   3.76E-02*   8.64E-04*    3.14E-03   4.85E+01   QNRc2DIIS    0.
 397  -108.183816354  -153.782848526    42.274713795  -3.31E-06*   4.51E-03*   6.98E-04*    1.82E-03   4.85E+01   QNRc2DIIS    0.
 398  -108.183816242  -153.782711583    42.274576965   1.12E-07*   1.92E-02*   8.50E-04*    1.44E-03   4.85E+01   QNRc2DIIS    0.
 399  -108.183770606  -153.781780150    42.273691168   4.56E-05*   4.09E-02*   3.30E-03*    7.12E-03   4.85E+01   QNRc2DIIS    0.
 400  -108.183814632  -153.783328832    42.275195824  -4.40E-05*   2.01E-02*   4.49E-04*    5.27E-03   4.85E+01   QNRc2DIIS    0.

       No convergence after 399 Iterations

--

 *****************************************************************************************************************************
 *                                                                                                                           *
 *                                             SCF/KS-DFT Program, Final results                                             *
 *                                                                                                                           *
 *                                                                                                                           *
 *                                                                                                                           *
 *                                                       Final Results                                                       *
 *                                                                                                                           *
 *****************************************************************************************************************************

::    Total SCF energy                               -108.1838146318
      One-electron energy                            -153.7833288315
      Two-electron energy                              42.2751958235
      Nuclear repulsion energy                          3.3243183762
      Kinetic energy (interpolated)                   107.8164185759
      Virial theorem                                    1.0034076077
      Total spin, S(S+1)                                0.0000000000
      Total spin, S                                     0.0000000000
      Max non-diagonal density matrix element           0.0268278742
      Max non-diagonal Fock matrix element              0.0037538286


      All orbitals with orbital energies smaller than  E(LUMO)+0.5 are printed

++    Molecular orbitals:
      -------------------

      Title: SCF orbitals

      Molecular orbitals for symmetry species 1: a  

          Orbital            1         2         3         4         5         6         7         8         9        10    
          Energy          -15.7323  -15.7310   -0.9817   -0.9806   -0.4740   -0.4729   -0.2439   -0.1754    0.0246    0.0256
          Occ. No.          2.0000    2.0000    2.0000    2.0000    2.0000    2.0000    2.0000    0.0000    0.0000    0.0000

        1 N1     1s         0.9954   -0.0009   -0.2232    0.0429   -0.0000    0.0000    0.0003    0.0005   -0.0000    0.0000
        2 N1     2s         0.0222   -0.0000    0.5235   -0.1008    0.0000    0.0000   -0.0022   -0.0020    0.0000    0.0000
        3 N1     *s        -0.0001    0.0000    0.5461   -0.1049   -0.0000   -0.0000    0.0014   -0.0001    0.0000   -0.0000
        4 N1     2px        0.0000    0.0000   -0.0003    0.0016    0.0198   -0.0010    0.4180   -0.4180    0.0642   -0.0059
        5 N1     *px       -0.0000    0.0000   -0.0000    0.0014    0.0122   -0.0010    0.3869   -0.3865    0.0761   -0.0056
        6 N1     2py       -0.0000   -0.0000    0.0000   -0.0001    0.5951   -0.0031   -0.0297    0.0389    0.2393   -0.0019
        7 N1     *py        0.0000   -0.0000   -0.0000   -0.0001    0.4164   -0.0021   -0.0291    0.0342    0.2839   -0.0022
        8 N1     2pz       -0.0000   -0.0000    0.0000   -0.0002   -0.3109    0.0015   -0.0421    0.0385    0.4630   -0.0034
        9 N1     *pz        0.0000   -0.0000    0.0000   -0.0001   -0.2175    0.0011   -0.0380    0.0366    0.5470   -0.0042
       10 N1     *200      -0.0019    0.0000   -0.0011    0.0002    0.0000   -0.0000    0.0002    0.0001    0.0000   -0.0000
       11 N1     *110      -0.0000   -0.0000   -0.0001    0.0000    0.0001   -0.0000   -0.0001   -0.0000    0.0001   -0.0000
       12 N1     *101      -0.0001    0.0000   -0.0004    0.0001   -0.0001   -0.0000   -0.0001   -0.0000    0.0001    0.0000
       13 N1     *020      -0.0016    0.0000   -0.0000   -0.0000   -0.0000    0.0000   -0.0004   -0.0002   -0.0000    0.0000
       14 N1     *011      -0.0006    0.0000   -0.0028    0.0005   -0.0000    0.0000    0.0000    0.0000   -0.0000    0.0000
       15 N1     *002      -0.0020    0.0000   -0.0020    0.0003    0.0000    0.0000   -0.0004   -0.0002   -0.0000    0.0000
       16 N2     1s         0.0009    0.9954   -0.0429   -0.2232    0.0000   -0.0000    0.0003   -0.0005    0.0000   -0.0000
       17 N2     2s         0.0000    0.0222    0.1005    0.5234    0.0000    0.0000   -0.0022    0.0020   -0.0000    0.0000
       18 N2     *s         0.0000   -0.0001    0.1052    0.5461   -0.0000   -0.0000    0.0014    0.0001   -0.0000   -0.0000
       19 N2     2px       -0.0000   -0.0000   -0.0014    0.0008    0.0056    0.0118   -0.4210   -0.4213    0.0009    0.0067
       20 N2     *px       -0.0000    0.0000   -0.0013    0.0005    0.0052    0.0083   -0.3900   -0.3895    0.0008    0.0066
       21 N2     2py       -0.0000   -0.0000   -0.0000    0.0000   -0.0032   -0.6406   -0.0102   -0.0066   -0.0015   -0.1564
       22 N2     *py       -0.0000    0.0000   -0.0000    0.0000   -0.0023   -0.4484   -0.0097   -0.0065   -0.0017   -0.1871
       23 N2     2pz        0.0000    0.0000    0.0000   -0.0000   -0.0009   -0.2015    0.0060   -0.0009    0.0043    0.5010
       24 N2     *pz        0.0000   -0.0000    0.0000    0.0000   -0.0005   -0.1408    0.0053   -0.0009    0.0051    0.5922
       25 N2     *200      -0.0000   -0.0019   -0.0002   -0.0011   -0.0000   -0.0000    0.0002   -0.0001    0.0000   -0.0000
       26 N2     *110       0.0000   -0.0000    0.0000   -0.0000   -0.0000    0.0001    0.0000   -0.0000   -0.0000    0.0000
       27 N2     *101       0.0000   -0.0000   -0.0000   -0.0001    0.0000    0.0000   -0.0000   -0.0000   -0.0000   -0.0001
       28 N2     *020      -0.0000   -0.0016    0.0001    0.0005    0.0000    0.0000   -0.0004    0.0002   -0.0000    0.0000
       29 N2     *011       0.0000    0.0004    0.0004    0.0020   -0.0000   -0.0000    0.0000    0.0000   -0.0000   -0.0000
       30 N2     *002      -0.0000   -0.0021   -0.0005   -0.0024    0.0000   -0.0000   -0.0004    0.0002   -0.0000    0.0000
--


++    Molecular charges:
      ------------------

      Mulliken charges per centre and basis function type
      ---------------------------------------------------

                N1      N2    
      1s       1.9968  1.9968
      2s       0.9812  0.9810
      2px      0.5183  0.5255
      2pz      0.2688  0.1108
      2py      0.9683  1.1193
      *s       1.0307  1.0308
      *px      0.4678  0.4750
      *pz      0.1694  0.0692
      *py      0.6068  0.7008
      *200    -0.0031 -0.0030
      *110     0.0000  0.0000
      *101     0.0000  0.0000
      *020    -0.0003  0.0008
      *011     0.0000  0.0000
      *002    -0.0053 -0.0064
      Total    6.9994  7.0006

      N-E      0.0006 -0.0006

      Total electronic charge=   14.000000

      Total            charge=   -0.000000
--


++    Molecular properties:
      ---------------------

      Charge (e):
                      =   -0.0000
      Dipole Moment (Debye):
      Origin of the operator (Ang)=    0.0000    0.0000    0.0000
                   X= -2.2839E-02               Y= -5.8876E-04               Z= -4.9978E-04           Total=  2.2852E-02
      Quadrupole Moment (Debye*Ang):
      Origin of the operator (Ang)=    3.9000    0.0000    0.0000
                  XX= -1.1618E+01              XY=  5.9338E-02              XZ=  2.3218E-01              YY= -1.3096E+01
                  YZ=  3.3678E-01              ZZ= -9.2008E+00
      In traceless form (Debye*Ang)
                  XX= -4.6988E-01              XY=  8.9008E-02              XZ=  3.4828E-01              YY= -2.6866E+00
                  YZ=  5.0516E-01              ZZ=  3.1565E+00
--


      Input file to MOLDEN was generated!

 ###############################################################################
 ###############################################################################
 ###                                                                         ###
 ###                                                                         ###
 ###    WARNING: RunFile label BirthCertificate                              ###
 ###    was used      402 times                                              ###
 ###                                                                         ###
 ###                                                                         ###
 ###############################################################################
 ###############################################################################
 ###############################################################################
 ###############################################################################
 ###                                                                         ###
 ###                                                                         ###
 ###    WARNING: RunFile label nBas                                          ###
 ###    was used       60 times                                              ###
 ###                                                                         ###
 ###                                                                         ###
 ###############################################################################
 ###############################################################################
--- Stop Module: scf at Tue Jun  4 14:27:13 2024 /rc=_RC_NOT_CONVERGED_ ---
*** files: n2.scf.molden n2.ScfOrb xmldump
    saved to directory /home/kenya/molcas_test/0604
--- Module scf spent 15 seconds ---

>>> END FOREACH

.#######################.
.# Convergence problem #.
.#######################.

    Timing: Wall=220.33 User=185.84 System=30.48
