[Molden Format]
[N_Atoms]
                    2
[Atoms] (AU)
N1          1      7           0.00000000      0.00000000      0.00000000
N2          2      7          14.73986377      0.00000000      0.00000000
[Charge] (Mulliken)
   6.0888344276577300E-004
  -6.0888344289811158E-004
[GTO] (AU)
   1
   s   6
  4.173511460E+03  1.834772160E-03
  6.274579110E+02  1.399462700E-02
  1.429020930E+02  6.858655181E-02
  4.023432930E+01  2.322408730E-01
  1.282021290E+01  4.690699481E-01
  4.390437010E+00  3.604551991E-01
   s   3
  1.162636186E+01 -1.149611817E-01
  2.716279807E+00 -1.691174786E-01
  7.722183966E-01  1.145851947E+00
   s   1
  2.120314975E-01  1.000000000E+00
   p   3
  1.162636186E+01  6.757974388E-02
  2.716279807E+00  3.239072959E-01
  7.722183966E-01  7.408951398E-01
   p   1
  2.120314975E-01  1.000000000E+00
   d   1
  8.000000000E-01  1.000000000E+00
 
   2
   s   6
  4.173511460E+03  1.834772160E-03
  6.274579110E+02  1.399462700E-02
  1.429020930E+02  6.858655181E-02
  4.023432930E+01  2.322408730E-01
  1.282021290E+01  4.690699481E-01
  4.390437010E+00  3.604551991E-01
   s   3
  1.162636186E+01 -1.149611817E-01
  2.716279807E+00 -1.691174786E-01
  7.722183966E-01  1.145851947E+00
   s   1
  2.120314975E-01  1.000000000E+00
   p   3
  1.162636186E+01  6.757974388E-02
  2.716279807E+00  3.239072959E-01
  7.722183966E-01  7.408951398E-01
   p   1
  2.120314975E-01  1.000000000E+00
   d   1
  8.000000000E-01  1.000000000E+00
 
[MO]
Sym=     1a  
Ene=   -15.7320
Spin= Alpha
Occup=    2.00000
   1         0.99543296
   2         0.02221419
   3        -0.00006981
   4         0.00001843
   5        -0.00000165
   6        -0.00000167
   7        -0.00000762
   8         0.00000081
   9         0.00000058
  10        -0.00325744
  11        -0.00283431
  12        -0.00350942
  13        -0.00000479
  14        -0.00008016
  15        -0.00055608
  16         0.00089101
  17         0.00001965
  18         0.00000178
  19        -0.00000547
  20        -0.00000014
  21         0.00000009
  22        -0.00000531
  23        -0.00000013
  24         0.00000008
  25        -0.00000236
  26        -0.00000298
  27        -0.00000386
  28         0.00000004
  29         0.00000001
  30         0.00000035
Sym=     2a  
Ene=   -15.7310
Spin= Alpha
Occup=    2.00000
   1        -0.00089149
   2        -0.00002014
   3         0.00000191
   4         0.00000539
   5        -0.00000038
   6        -0.00000054
   7         0.00000528
   8        -0.00000038
   9        -0.00000050
  10         0.00000347
  11         0.00000197
  12         0.00000257
  13        -0.00000006
  14         0.00000002
  15         0.00000050
  16         0.99543149
  17         0.02222201
  18        -0.00006911
  19        -0.00001864
  20        -0.00000041
  21         0.00000018
  22         0.00000775
  23         0.00000017
  24        -0.00000003
  25        -0.00325163
  26        -0.00268930
  27        -0.00366903
  28        -0.00000443
  29        -0.00001324
  30         0.00039331
Sym=     3a  
Ene=    -0.9817
Spin= Alpha
Occup=    2.00000
   1        -0.22319986
   2         0.52347827
   3         0.54611036
   4        -0.00026770
   5         0.00001546
   6         0.00002070
   7        -0.00001992
   8        -0.00000214
   9         0.00000109
  10        -0.00189843
  11        -0.00000908
  12        -0.00343584
  13        -0.00005389
  14        -0.00043106
  15        -0.00282666
  16        -0.04291942
  17         0.10054870
  18         0.10516792
  19        -0.00135695
  20        -0.00003111
  21         0.00001928
  22        -0.00132932
  23        -0.00003110
  24         0.00001637
  25        -0.00031713
  26         0.00009623
  27        -0.00085986
  28         0.00000010
  29        -0.00001304
  30         0.00038356
Sym=     4a  
Ene=    -0.9806
Spin= Alpha
Occup=    2.00000
   1         0.04291909
   2        -0.10076485
   3        -0.10485670
   4         0.00157149
   5        -0.00010883
   6        -0.00015494
   7         0.00144403
   8        -0.00010397
   9        -0.00013650
  10         0.00040254
  11        -0.00005327
  12         0.00060533
  13         0.00000525
  14         0.00007857
  15         0.00054358
  16        -0.22318980
  17         0.52343032
  18         0.54607600
  19         0.00082211
  20         0.00002038
  21        -0.00000471
  22         0.00054850
  23         0.00001562
  24         0.00000184
  25        -0.00184220
  26         0.00078826
  27        -0.00418214
  28        -0.00001713
  29        -0.00007682
  30         0.00199451
Sym=     5a  
Ene=    -0.4740
Spin= Alpha
Occup=    2.00000
   1        -0.00000809
   2         0.00004425
   3        -0.00001787
   4         0.01975684
   5         0.59507617
   6        -0.31090055
   7         0.01218788
   8         0.41643297
   9        -0.21749475
  10         0.00000450
  11        -0.00001134
  12         0.00002186
  13         0.00011668
  14        -0.00006173
  15        -0.00000531
  16         0.00000711
  17         0.00000100
  18        -0.00004397
  19         0.00564180
  20        -0.00320550
  21        -0.00086206
  22         0.00521994
  23        -0.00231889
  24        -0.00052603
  25        -0.00000473
  26         0.00000765
  27         0.00000793
  28        -0.00000282
  29         0.00000157
  30        -0.00000005
Sym=     6a  
Ene=    -0.4729
Spin= Alpha
Occup=    2.00000
   1         0.00000082
   2         0.00000258
   3        -0.00000878
   4        -0.00100160
   5        -0.00311990
   6         0.00148502
   7        -0.00101527
   8        -0.00208477
   9         0.00111082
  10        -0.00000221
  11         0.00000268
  12         0.00000228
  13        -0.00000404
  14        -0.00000058
  15         0.00000058
  16        -0.00000274
  17         0.00001301
  18        -0.00000316
  19         0.01180993
  20        -0.64055206
  21        -0.20151654
  22         0.00827067
  23        -0.44843990
  24        -0.14084048
  25        -0.00000238
  26         0.00000713
  27        -0.00000060
  28         0.00012933
  29         0.00004090
  30        -0.00000124
Sym=     7a  
Ene=    -0.2439
Spin= Alpha
Occup=    2.00000
   1         0.00028825
   2        -0.00215596
   3         0.00144756
   4         0.41795397
   5        -0.02972315
   6        -0.04211023
   7         0.38685705
   8        -0.02907834
   9        -0.03799525
  10         0.00038444
  11        -0.00064422
  12        -0.00064602
  13        -0.00006056
  14        -0.00006289
  15         0.00000010
  16         0.00029475
  17        -0.00217586
  18         0.00143892
  19        -0.42099501
  20        -0.01023607
  21         0.00602089
  22        -0.38996432
  23        -0.00967614
  24         0.00525074
  25         0.00039286
  26        -0.00064970
  27        -0.00065257
  28         0.00001816
  29        -0.00000824
  30         0.00000131
Sym=     8a  
Ene=    -0.1754
Spin= Alpha
Occup=    0.00000
   1         0.00051837
   2        -0.00197378
   3        -0.00006287
   4        -0.41797926
   5         0.03892593
   6         0.03850556
   7        -0.38649238
   8         0.03422328
   9         0.03660965
  10         0.00011898
  11        -0.00038847
  12        -0.00038027
  13        -0.00000994
  14        -0.00001621
  15         0.00000547
  16        -0.00052035
  17         0.00198149
  18         0.00006320
  19        -0.42126973
  20        -0.00658181
  21        -0.00092631
  22        -0.38953311
  23        -0.00649888
  24        -0.00091857
  25        -0.00011700
  26         0.00039030
  27         0.00037755
  28        -0.00000448
  29        -0.00000288
  30         0.00000525
Sym=     9a  
Ene=     0.0246
Spin= Alpha
Occup=    0.00000
   1        -0.00000326
   2         0.00001269
   3         0.00000060
   4         0.06415051
   5         0.23933783
   6         0.46298210
   7         0.07607149
   8         0.28385427
   9         0.54696923
  10         0.00002965
  11        -0.00000585
  12        -0.00002107
  13         0.00005388
  14         0.00010558
  15        -0.00001860
  16         0.00000276
  17        -0.00000993
  18        -0.00000152
  19         0.00086859
  20        -0.00152901
  21         0.00428695
  22         0.00080382
  23        -0.00173754
  24         0.00510167
  25         0.00000045
  26        -0.00000158
  27        -0.00000147
  28        -0.00000273
  29        -0.00000658
  30        -0.00000015
Sym=    10a  
Ene=     0.0256
Spin= Alpha
Occup=    0.00000
   1         0.00000538
   2         0.00000693
   3        -0.00004279
   4        -0.00585115
   5        -0.00187256
   6        -0.00339475
   7        -0.00556264
   8        -0.00224313
   9        -0.00418449
  10        -0.00000450
  11         0.00000903
  12         0.00000806
  13        -0.00000035
  14         0.00000534
  15         0.00000003
  16        -0.00000410
  17         0.00002144
  18        -0.00000743
  19         0.00671455
  20        -0.15637891
  21         0.50095987
  22         0.00659394
  23        -0.18713934
  24         0.59223603
  25        -0.00000795
  26         0.00000650
  27         0.00000791
  28         0.00003731
  29        -0.00011969
  30        -0.00000171
Sym=    11a  
Ene=     0.8349
Spin= Alpha
Occup=    0.00000
   1        -0.00438319
   2         1.19864195
   3        -1.81457754
   4         0.00168812
   5        -0.00021281
   6        -0.00026664
   7        -0.00110835
   8         0.00015136
   9         0.00020853
  10         0.28095023
  11         0.28138376
  12         0.28447702
  13         0.00031608
  14         0.00060853
  15         0.00257219
  16        -0.00054345
  17         0.14414155
  18        -0.21811925
  19        -0.00123197
  20        -0.00002155
  21        -0.00000060
  22        -0.00029707
  23        -0.00000111
  24        -0.00000258
  25         0.03367491
  26         0.03380941
  27         0.03435116
  28        -0.00000590
  29        -0.00000282
  30        -0.00022170
Sym=    12a  
Ene=     0.8358
Spin= Alpha
Occup=    0.00000
   1        -0.00050804
   2         0.14406308
   3        -0.21820893
   4        -0.00083841
   5         0.00003729
   6         0.00003807
   7        -0.00058704
   8         0.00008799
   9         0.00008728
  10         0.03388399
  11         0.03377706
  12         0.03414860
  13         0.00003057
  14         0.00006403
  15         0.00030928
  16         0.00436556
  17        -1.19855777
  18         1.81465289
  19         0.00163642
  20        -0.00005265
  21        -0.00009811
  22        -0.00140971
  23         0.00006841
  24         0.00009191
  25        -0.28098199
  26        -0.28077939
  27        -0.28528211
  28         0.00000820
  29        -0.00001744
  30         0.00184165
Sym=    13a  
Ene=     0.8911
Spin= Alpha
Occup=    0.00000
   1         0.00000010
   2         0.00002938
   3        -0.00004412
   4         0.01849778
   5         0.84831323
   6        -0.44502558
   7        -0.02135136
   8        -0.94870602
   9         0.49783021
  10         0.00000845
  11        -0.00000032
  12         0.00001317
  13         0.00005037
  14        -0.00002651
  15        -0.00000375
  16         0.00000050
  17        -0.00001540
  18         0.00002067
  19         0.00035552
  20         0.00213104
  21         0.00065817
  22         0.00042618
  23        -0.00239167
  24        -0.00076774
  25        -0.00000509
  26        -0.00000240
  27        -0.00000275
  28         0.00000916
  29        -0.00000498
  30        -0.00000004
Sym=    14a  
Ene=     0.8921
Spin= Alpha
Occup=    0.00000
   1        -0.00000005
   2        -0.00001689
   3         0.00002621
   4         0.00009674
   5         0.00198154
   6        -0.00110525
   7        -0.00002027
   8        -0.00218247
   9         0.00119364
  10        -0.00000303
  11        -0.00000486
  12        -0.00000421
  13         0.00001007
  14         0.00000315
  15        -0.00000124
  16        -0.00000023
  17         0.00014040
  18        -0.00021319
  19         0.02067728
  20        -0.91142489
  21        -0.29503492
  22        -0.02305519
  23         1.01932295
  24         0.32965456
  25         0.00002999
  26         0.00003427
  27         0.00003264
  28         0.00005304
  29         0.00001659
  30         0.00000123
Sym=    15a  
Ene=     0.9162
Spin= Alpha
Occup=    0.00000
   1         0.00004621
   2         0.00153538
   3        -0.00260930
   4        -0.99913950
   5         0.07605304
   6         0.10044201
   7         1.02408580
   8        -0.07635873
   9        -0.10380397
  10         0.00029711
  11         0.00049683
  12         0.00050541
  13         0.00001591
  14         0.00002191
  15         0.00000599
  16         0.00000288
  17         0.00031017
  18        -0.00049442
  19         0.00640651
  20         0.00006930
  21         0.00002671
  22        -0.00636439
  23        -0.00014650
  24        -0.00004789
  25         0.00009733
  26         0.00006423
  27         0.00006534
  28         0.00000147
  29         0.00000194
  30        -0.00000041
Sym=    16a  
Ene=     0.9171
Spin= Alpha
Occup=    0.00000
   1        -0.00000220
   2        -0.00028220
   3         0.00044770
   4        -0.00610390
   5         0.00048704
   6         0.00066457
   7         0.00653884
   8        -0.00051522
   9        -0.00070593
  10        -0.00009133
  11        -0.00005613
  12        -0.00005674
  13         0.00000186
  14         0.00000193
  15        -0.00000061
  16        -0.00004425
  17        -0.00173220
  18         0.00289683
  19        -1.00689442
  20        -0.02103096
  21        -0.00481486
  22         1.03184945
  23         0.02190993
  24         0.00498454
  25        -0.00033895
  26        -0.00053777
  27        -0.00055166
  28         0.00000432
  29         0.00000146
  30         0.00000540
Sym=    17a  
Ene=     0.9327
Spin= Alpha
Occup=    0.00000
   1        -0.00000086
   2         0.00014838
   3        -0.00022435
   4         0.12900045
   5         0.47958912
   6         0.92022747
   7        -0.12240779
   8        -0.45535135
   9        -0.87255021
  10         0.00005476
  11         0.00003133
  12         0.00002238
  13         0.00003491
  14         0.00006731
  15        -0.00001073
  16        -0.00000012
  17        -0.00004000
  18         0.00006226
  19         0.00006535
  20        -0.00060542
  21         0.00155021
  22        -0.00004979
  23         0.00049601
  24        -0.00149302
  25        -0.00001345
  26        -0.00000753
  27        -0.00000774
  28         0.00000370
  29         0.00000781
  30         0.00000021
Sym=    18a  
Ene=     0.9336
Spin= Alpha
Occup=    0.00000
   1         0.00000057
   2         0.00000586
   3        -0.00001239
   4        -0.00062159
   5        -0.00070888
   6        -0.00142969
   7        -0.00021991
   8         0.00074199
   9         0.00143379
  10         0.00000032
  11         0.00000141
  12         0.00000327
  13         0.00000292
  14        -0.00000890
  15         0.00000039
  16        -0.00000055
  17        -0.00007919
  18         0.00012277
  19         0.00242550
  20        -0.32120939
  21         0.99526000
  22        -0.00148954
  23         0.30573027
  24        -0.94334828
  25        -0.00001831
  26        -0.00001610
  27        -0.00001881
  28         0.00002384
  29        -0.00007360
  30        -0.00000102
Sym=    19a  
Ene=     1.9680
Spin= Alpha
Occup=    0.00000
   1         0.00382008
   2        -0.01800259
   3        -0.00673222
   4         0.00022669
   5        -0.00001606
   6        -0.00001591
   7         0.00001660
   8        -0.00000214
   9        -0.00000006
  10        -0.66855609
  11         0.00964806
  12         0.69492338
  13         0.11797785
  14         0.20540861
  15         0.56544728
  16         0.00023330
  17        -0.00121499
  18        -0.00025551
  19        -0.00030035
  20        -0.00000370
  21        -0.00000028
  22        -0.00029676
  23        -0.00000517
  24        -0.00000166
  25        -0.04763342
  26        -0.00654941
  27         0.05639601
  28        -0.00052842
  29        -0.00111214
  30        -0.02607978
Sym=    20a  
Ene=     1.9691
Spin= Alpha
Occup=    0.00000
   1         0.00027249
   2        -0.00116608
   3        -0.00063757
   4        -0.00027335
   5         0.00002603
   6         0.00002510
   7        -0.00029766
   8         0.00002354
   9         0.00002544
  10        -0.03910279
  11        -0.00209162
  12         0.04374872
  13         0.01391986
  14         0.02550351
  15         0.03737762
  16        -0.00383148
  17         0.01802962
  18         0.00676115
  19         0.00019071
  20         0.00000507
  21         0.00000113
  22        -0.00001881
  23        -0.00000088
  24         0.00000119
  25         0.69325400
  26         0.13191736
  27        -0.86127719
  28         0.01092529
  29        -0.00253770
  30         0.41106299
Sym=    21a  
Ene=     1.9698
Spin= Alpha
Occup=    0.00000
   1         0.00000264
   2        -0.00001121
   3        -0.00000642
   4         0.00002372
   5         0.00006666
   6         0.00012924
   7        -0.00000335
   8        -0.00000112
   9        -0.00000035
  10        -0.21313011
  11         0.05860268
  12         0.15455596
  13        -0.44590076
  14        -0.85952803
  15         0.11168798
  16        -0.00005717
  17         0.00025132
  18         0.00012572
  19        -0.00004418
  20        -0.00000566
  21        -0.00000105
  22        -0.00004855
  23         0.00000529
  24         0.00001167
  25         0.00955236
  26         0.00190397
  27        -0.01199037
  28        -0.00900766
  29         0.03360510
  30         0.00654551
Sym=    22a  
Ene=     1.9709
Spin= Alpha
Occup=    0.00000
   1         0.00000560
   2        -0.00002132
   3        -0.00001735
   4         0.00000273
   5         0.00000017
   6        -0.00001132
   7         0.00000159
   8        -0.00000400
   9         0.00001222
  10         0.00673374
  11        -0.00232232
  12        -0.00435713
  13         0.01721054
  14         0.02941351
  15        -0.00317383
  16        -0.00000362
  17         0.00002641
  18         0.00003947
  19        -0.00000237
  20        -0.00004522
  21         0.00013977
  22        -0.00000376
  23        -0.00000006
  24         0.00000100
  25         0.00469731
  26        -0.00991555
  27         0.00521829
  28        -0.30576760
  29         0.95126740
  30         0.01673819
Sym=    23a  
Ene=     1.9816
Spin= Alpha
Occup=    0.00000
   1        -0.00000022
   2         0.00002127
   3         0.00000411
   4        -0.00000041
   5        -0.00000306
   6         0.00000039
   7        -0.00000066
   8         0.00000028
   9        -0.00000044
  10        -0.00395539
  11        -0.70398677
  12         0.70794583
  13        -0.11814876
  14         0.04133149
  15        -0.56550776
  16         0.00000002
  17        -0.00000021
  18         0.00000016
  19         0.00000033
  20        -0.00000011
  21         0.00000011
  22         0.00000028
  23         0.00000004
  24         0.00000006
  25        -0.00000410
  26         0.00003200
  27        -0.00002783
  28         0.00001046
  29         0.00001211
  30        -0.00005282
Sym=    24a  
Ene=     1.9827
Spin= Alpha
Occup=    0.00000
   1        -0.00000004
   2         0.00000020
   3         0.00000003
   4        -0.00000005
   5        -0.00000002
   6         0.00000002
   7        -0.00000006
   8         0.00000001
   9         0.00000001
  10        -0.00000460
  11        -0.00003977
  12         0.00004415
  13        -0.00001051
  14         0.00000315
  15        -0.00003939
  16        -0.00000317
  17         0.00001107
  18         0.00006620
  19        -0.00000006
  20        -0.00000138
  21        -0.00000090
  22         0.00000045
  23        -0.00000170
  24        -0.00000178
  25        -0.00010819
  26        -0.50450135
  27         0.50458015
  28         0.00836160
  29        -0.01696024
  30         0.81254370
Sym=    25a  
Ene=     1.9929
Spin= Alpha
Occup=    0.00000
   1        -0.00000088
   2         0.00005886
   3         0.00002334
   4        -0.00000078
   5         0.00012817
   6        -0.00006692
   7        -0.00000432
   8         0.00000152
   9        -0.00000013
  10        -0.03161280
  11         0.11302885
  12        -0.08140303
  13        -0.87641547
  14         0.46259130
  15         0.05532080
  16        -0.00000151
  17         0.00000547
  18         0.00000417
  19        -0.00000248
  20        -0.00000191
  21         0.00000531
  22        -0.00000250
  23         0.00001148
  24        -0.00000532
  25        -0.00136513
  26         0.00137930
  27        -0.00003049
  28         0.03296656
  29         0.01242387
  30         0.00049958
Sym=    26a  
Ene=     1.9940
Spin= Alpha
Occup=    0.00000
   1         0.00001941
   2        -0.00007665
   3        -0.00005826
   4         0.00000556
   5        -0.00001159
   6         0.00000066
   7         0.00000540
   8         0.00001179
   9         0.00000321
  10         0.00456080
  11        -0.00712603
  12         0.00275322
  13         0.03134250
  14        -0.01509234
  15         0.00056384
  16         0.00000292
  17        -0.00000307
  18        -0.00005831
  19        -0.00000185
  20         0.00013771
  21         0.00004389
  22         0.00000062
  23         0.00000351
  24         0.00000171
  25        -0.03218726
  26         0.03053414
  27         0.00169279
  28         0.95075406
  29         0.30564121
  30         0.00853123
Sym=    27a  
Ene=     1.9946
Spin= Alpha
Occup=    0.00000
   1        -0.00415051
   2         0.01672238
   3         0.01132797
   4         0.00021509
   5        -0.00001504
   6        -0.00002335
   7         0.00002022
   8        -0.00000074
   9        -0.00000243
  10        -0.71090375
  11         0.68345568
  12        -0.01319559
  13         0.06084758
  14         0.03954763
  15        -0.58473149
  16        -0.00030060
  17         0.00111648
  18         0.00094290
  19        -0.00029909
  20        -0.00000309
  21         0.00000005
  22        -0.00029677
  23        -0.00000527
  24        -0.00000147
  25        -0.04700718
  26         0.05719816
  27        -0.01310685
  28         0.00187902
  29         0.00084425
  30         0.02908856
Sym=    28a  
Ene=     1.9957
Spin= Alpha
Occup=    0.00000
   1        -0.00026307
   2         0.00115636
   3         0.00059146
   4        -0.00027245
   5         0.00002707
   6         0.00002628
   7        -0.00029718
   8         0.00002366
   9         0.00002527
  10        -0.05009068
  11         0.04652400
  12         0.00096364
  13         0.00392293
  14         0.00303251
  15        -0.03817213
  16         0.00413805
  17        -0.01669171
  18        -0.01124736
  19         0.00017826
  20         0.00000338
  21         0.00000063
  22        -0.00001737
  23         0.00000086
  24        -0.00000024
  25         0.71845133
  26        -0.83512383
  27         0.15718665
  28         0.03481059
  29         0.00969787
  30        -0.41084783
Sym=    29a  
Ene=     3.5551
Spin= Alpha
Occup=    0.00000
   1         0.39012907
   2        -1.53452485
   3        -1.39662159
   4         0.00001108
   5        -0.00000088
   6        -0.00000223
   7        -0.00005679
   8         0.00000532
   9         0.00000635
  10         1.28834806
  11         1.29663722
  12         1.28217691
  13        -0.00053133
  14        -0.00164287
  15        -0.01203922
  16         0.00000074
  17        -0.00000303
  18        -0.00000252
  19        -0.00000046
  20        -0.00000004
  21        -0.00000001
  22        -0.00000046
  23        -0.00000003
  24        -0.00000001
  25         0.00000264
  26         0.00000242
  27         0.00000238
  28        -0.00000000
  29         0.00000001
  30         0.00000001
Sym=    30a  
Ene=     3.5562
Spin= Alpha
Occup=    0.00000
   1        -0.00000076
   2         0.00000290
   3         0.00000285
   4         0.00000031
   5         0.00000002
   6        -0.00000006
   7         0.00000032
   8         0.00000001
   9        -0.00000004
  10        -0.00000238
  11        -0.00000261
  12        -0.00000259
  13        -0.00000002
  14        -0.00000001
  15         0.00000003
  16         0.39013869
  17        -1.53461338
  18        -1.39652758
  19        -0.00000949
  20        -0.00000063
  21        -0.00000119
  22         0.00005526
  23         0.00000139
  24         0.00000136
  25         1.28853758
  26         1.29966781
  27         1.27890571
  28        -0.00026984
  29        -0.00012649
  30         0.00859910
