[Molden Format]
[N_Atoms]
                   14
[Atoms] (AU)
C1          1      6          -3.51113187     -0.94600206      0.00000000
H2          2      1          -3.31970921     -2.98778639      0.00000000
C3          3      6          -5.84207751      0.08118953      0.00000000
H4          4      1          -6.11958932      2.11037854      0.00000000
H5          5      1          -7.51974590     -1.08721377      0.00000000
C6          6      6          -1.16860550      0.51936985      0.00000000
H7          7      1          -1.35467842      2.56261735      0.00000000
C8          8      6           1.16860571     -0.51937031      0.00000000
H9          9      1           1.35467848     -2.56261788      0.00000000
C10        10      6           3.51113183      0.94600208      0.00000000
H11        11      1           3.31970911      2.98778647      0.00000000
C12        12      6           5.84207756     -0.08118932      0.00000000
H13        13      1           6.11958930     -2.11037831      0.00000000
H14        14      1           7.51974573      1.08721424      0.00000000
[5D]
[7F]
[9G]
[Charge] (Mulliken)
   0.0000000000000000     
   0.0000000000000000     
   0.0000000000000000     
   0.0000000000000000     
   0.0000000000000000     
   0.0000000000000000     
   0.0000000000000000     
   0.0000000000000000     
   0.0000000000000000     
   0.0000000000000000     
   0.0000000000000000     
   0.0000000000000000     
   0.0000000000000000     
   0.0000000000000000     
[GTO] (AU)
   1
   s   9
  6.665000000E+03  6.920001793E-04
  1.000000000E+03  5.329001381E-03
  2.280000000E+02  2.707700701E-02
  6.471000000E+01  1.017180264E-01
  2.106000000E+01  2.747400712E-01
  7.495000000E+00  4.485641162E-01
  2.797000000E+00  2.850740738E-01
  5.215000000E-01  1.520400394E-02
  1.596000000E-01 -3.191000827E-03
   s   9
  6.665000000E+03 -1.460000642E-04
  1.000000000E+03 -1.154000508E-03
  2.280000000E+02 -5.725002519E-03
  6.471000000E+01 -2.331201026E-02
  2.106000000E+01 -6.395502813E-02
  7.495000000E+00 -1.499810660E-01
  2.797000000E+00 -1.272620560E-01
  5.215000000E-01  5.445292395E-01
  1.596000000E-01  5.804962554E-01
   s   1
  1.596000000E-01  1.000000000E+00
   p   4
  9.439000000E+00  3.810902127E-02
  2.002000000E+00  2.094801169E-01
  5.456000000E-01  5.085572839E-01
  1.517000000E-01  4.688422617E-01
   p   1
  1.517000000E-01  1.000000000E+00
   d   1
  5.500000000E-01  1.000000000E+00
 
   2
   s   4
  1.301000000E+01  1.968498999E-02
  1.962000000E+00  1.379769298E-01
  4.446000000E-01  4.781477569E-01
  1.220000000E-01  5.012397451E-01
   s   1
  1.220000000E-01  1.000000000E+00
   p   1
  7.270000000E-01  1.000000000E+00
 
   3
   s   9
  6.665000000E+03  6.920001793E-04
  1.000000000E+03  5.329001381E-03
  2.280000000E+02  2.707700701E-02
  6.471000000E+01  1.017180264E-01
  2.106000000E+01  2.747400712E-01
  7.495000000E+00  4.485641162E-01
  2.797000000E+00  2.850740738E-01
  5.215000000E-01  1.520400394E-02
  1.596000000E-01 -3.191000827E-03
   s   9
  6.665000000E+03 -1.460000642E-04
  1.000000000E+03 -1.154000508E-03
  2.280000000E+02 -5.725002519E-03
  6.471000000E+01 -2.331201026E-02
  2.106000000E+01 -6.395502813E-02
  7.495000000E+00 -1.499810660E-01
  2.797000000E+00 -1.272620560E-01
  5.215000000E-01  5.445292395E-01
  1.596000000E-01  5.804962554E-01
   s   1
  1.596000000E-01  1.000000000E+00
   p   4
  9.439000000E+00  3.810902127E-02
  2.002000000E+00  2.094801169E-01
  5.456000000E-01  5.085572839E-01
  1.517000000E-01  4.688422617E-01
   p   1
  1.517000000E-01  1.000000000E+00
   d   1
  5.500000000E-01  1.000000000E+00
 
   4
   s   4
  1.301000000E+01  1.968498999E-02
  1.962000000E+00  1.379769298E-01
  4.446000000E-01  4.781477569E-01
  1.220000000E-01  5.012397451E-01
   s   1
  1.220000000E-01  1.000000000E+00
   p   1
  7.270000000E-01  1.000000000E+00
 
   5
   s   4
  1.301000000E+01  1.968498999E-02
  1.962000000E+00  1.379769298E-01
  4.446000000E-01  4.781477569E-01
  1.220000000E-01  5.012397451E-01
   s   1
  1.220000000E-01  1.000000000E+00
   p   1
  7.270000000E-01  1.000000000E+00
 
   6
   s   9
  6.665000000E+03  6.920001793E-04
  1.000000000E+03  5.329001381E-03
  2.280000000E+02  2.707700701E-02
  6.471000000E+01  1.017180264E-01
  2.106000000E+01  2.747400712E-01
  7.495000000E+00  4.485641162E-01
  2.797000000E+00  2.850740738E-01
  5.215000000E-01  1.520400394E-02
  1.596000000E-01 -3.191000827E-03
   s   9
  6.665000000E+03 -1.460000642E-04
  1.000000000E+03 -1.154000508E-03
  2.280000000E+02 -5.725002519E-03
  6.471000000E+01 -2.331201026E-02
  2.106000000E+01 -6.395502813E-02
  7.495000000E+00 -1.499810660E-01
  2.797000000E+00 -1.272620560E-01
  5.215000000E-01  5.445292395E-01
  1.596000000E-01  5.804962554E-01
   s   1
  1.596000000E-01  1.000000000E+00
   p   4
  9.439000000E+00  3.810902127E-02
  2.002000000E+00  2.094801169E-01
  5.456000000E-01  5.085572839E-01
  1.517000000E-01  4.688422617E-01
   p   1
  1.517000000E-01  1.000000000E+00
   d   1
  5.500000000E-01  1.000000000E+00
 
   7
   s   4
  1.301000000E+01  1.968498999E-02
  1.962000000E+00  1.379769298E-01
  4.446000000E-01  4.781477569E-01
  1.220000000E-01  5.012397451E-01
   s   1
  1.220000000E-01  1.000000000E+00
   p   1
  7.270000000E-01  1.000000000E+00
 
   8
   s   9
  6.665000000E+03  6.920001793E-04
  1.000000000E+03  5.329001381E-03
  2.280000000E+02  2.707700701E-02
  6.471000000E+01  1.017180264E-01
  2.106000000E+01  2.747400712E-01
  7.495000000E+00  4.485641162E-01
  2.797000000E+00  2.850740738E-01
  5.215000000E-01  1.520400394E-02
  1.596000000E-01 -3.191000827E-03
   s   9
  6.665000000E+03 -1.460000642E-04
  1.000000000E+03 -1.154000508E-03
  2.280000000E+02 -5.725002519E-03
  6.471000000E+01 -2.331201026E-02
  2.106000000E+01 -6.395502813E-02
  7.495000000E+00 -1.499810660E-01
  2.797000000E+00 -1.272620560E-01
  5.215000000E-01  5.445292395E-01
  1.596000000E-01  5.804962554E-01
   s   1
  1.596000000E-01  1.000000000E+00
   p   4
  9.439000000E+00  3.810902127E-02
  2.002000000E+00  2.094801169E-01
  5.456000000E-01  5.085572839E-01
  1.517000000E-01  4.688422617E-01
   p   1
  1.517000000E-01  1.000000000E+00
   d   1
  5.500000000E-01  1.000000000E+00
 
   9
   s   4
  1.301000000E+01  1.968498999E-02
  1.962000000E+00  1.379769298E-01
  4.446000000E-01  4.781477569E-01
  1.220000000E-01  5.012397451E-01
   s   1
  1.220000000E-01  1.000000000E+00
   p   1
  7.270000000E-01  1.000000000E+00
 
  10
   s   9
  6.665000000E+03  6.920001793E-04
  1.000000000E+03  5.329001381E-03
  2.280000000E+02  2.707700701E-02
  6.471000000E+01  1.017180264E-01
  2.106000000E+01  2.747400712E-01
  7.495000000E+00  4.485641162E-01
  2.797000000E+00  2.850740738E-01
  5.215000000E-01  1.520400394E-02
  1.596000000E-01 -3.191000827E-03
   s   9
  6.665000000E+03 -1.460000642E-04
  1.000000000E+03 -1.154000508E-03
  2.280000000E+02 -5.725002519E-03
  6.471000000E+01 -2.331201026E-02
  2.106000000E+01 -6.395502813E-02
  7.495000000E+00 -1.499810660E-01
  2.797000000E+00 -1.272620560E-01
  5.215000000E-01  5.445292395E-01
  1.596000000E-01  5.804962554E-01
   s   1
  1.596000000E-01  1.000000000E+00
   p   4
  9.439000000E+00  3.810902127E-02
  2.002000000E+00  2.094801169E-01
  5.456000000E-01  5.085572839E-01
  1.517000000E-01  4.688422617E-01
   p   1
  1.517000000E-01  1.000000000E+00
   d   1
  5.500000000E-01  1.000000000E+00
 
  11
   s   4
  1.301000000E+01  1.968498999E-02
  1.962000000E+00  1.379769298E-01
  4.446000000E-01  4.781477569E-01
  1.220000000E-01  5.012397451E-01
   s   1
  1.220000000E-01  1.000000000E+00
   p   1
  7.270000000E-01  1.000000000E+00
 
  12
   s   9
  6.665000000E+03  6.920001793E-04
  1.000000000E+03  5.329001381E-03
  2.280000000E+02  2.707700701E-02
  6.471000000E+01  1.017180264E-01
  2.106000000E+01  2.747400712E-01
  7.495000000E+00  4.485641162E-01
  2.797000000E+00  2.850740738E-01
  5.215000000E-01  1.520400394E-02
  1.596000000E-01 -3.191000827E-03
   s   9
  6.665000000E+03 -1.460000642E-04
  1.000000000E+03 -1.154000508E-03
  2.280000000E+02 -5.725002519E-03
  6.471000000E+01 -2.331201026E-02
  2.106000000E+01 -6.395502813E-02
  7.495000000E+00 -1.499810660E-01
  2.797000000E+00 -1.272620560E-01
  5.215000000E-01  5.445292395E-01
  1.596000000E-01  5.804962554E-01
   s   1
  1.596000000E-01  1.000000000E+00
   p   4
  9.439000000E+00  3.810902127E-02
  2.002000000E+00  2.094801169E-01
  5.456000000E-01  5.085572839E-01
  1.517000000E-01  4.688422617E-01
   p   1
  1.517000000E-01  1.000000000E+00
   d   1
  5.500000000E-01  1.000000000E+00
 
  13
   s   4
  1.301000000E+01  1.968498999E-02
  1.962000000E+00  1.379769298E-01
  4.446000000E-01  4.781477569E-01
  1.220000000E-01  5.012397451E-01
   s   1
  1.220000000E-01  1.000000000E+00
   p   1
  7.270000000E-01  1.000000000E+00
 
  14
   s   4
  1.301000000E+01  1.968498999E-02
  1.962000000E+00  1.379769298E-01
  4.446000000E-01  4.781477569E-01
  1.220000000E-01  5.012397451E-01
   s   1
  1.220000000E-01  1.000000000E+00
   p   1
  7.270000000E-01  1.000000000E+00
 
[MO]
Sym=     1a  
Ene=   -11.3560
Spin= Alpha
Occup=    2.00000
   1         0.40209596
   2         0.00201479
   3         0.00187457
   4         0.00082626
   5         0.00130130
   6        -0.00000000
   7        -0.00006851
   8        -0.00010790
   9         0.00000000
  10        -0.00000000
  11        -0.00000000
  12        -0.00000000
  13         0.00000000
  14         0.00000000
  15         0.00230119
  16        -0.00033419
  17        -0.00000000
  18         0.00000000
  19        -0.00000000
  20         0.24609927
  21         0.00128366
  22         0.00114309
  23         0.00174386
  24        -0.00060376
  25         0.00000000
  26        -0.00014460
  27         0.00005006
  28        -0.00000000
  29         0.00000000
  30        -0.00000000
  31         0.00000000
  32         0.00000000
  33         0.00000000
  34         0.00141018
  35        -0.00020479
  36        -0.00000000
  37        -0.00000000
  38         0.00000000
  39         0.00132357
  40        -0.00019222
  41         0.00000000
  42         0.00000000
  43        -0.00000000
  44         0.52416787
  45         0.00252400
  46         0.00245221
  47         0.00086455
  48        -0.00149767
  49         0.00000000
  50        -0.00007169
  51         0.00012418
  52        -0.00000000
  53         0.00000000
  54        -0.00000000
  55         0.00000000
  56        -0.00000000
  57        -0.00000000
  58         0.00295765
  59        -0.00042953
  60        -0.00000000
  61         0.00000000
  62         0.00000000
  63         0.52416782
  64         0.00252400
  65         0.00245221
  66        -0.00086455
  67         0.00149767
  68         0.00000000
  69         0.00007169
  70        -0.00012418
  71         0.00000000
  72        -0.00000000
  73        -0.00000000
  74         0.00000000
  75        -0.00000000
  76         0.00000000
  77         0.00295765
  78        -0.00042953
  79        -0.00000000
  80        -0.00000000
  81        -0.00000000
  82         0.40209588
  83         0.00201479
  84         0.00187457
  85        -0.00082626
  86        -0.00130130
  87        -0.00000000
  88         0.00006851
  89         0.00010790
  90         0.00000000
  91         0.00000000
  92        -0.00000000
  93         0.00000000
  94         0.00000000
  95        -0.00000000
  96         0.00230119
  97        -0.00033419
  98        -0.00000000
  99        -0.00000000
 100        -0.00000000
 101         0.24609923
 102         0.00128366
 103         0.00114309
 104        -0.00174386
 105         0.00060376
 106         0.00000000
 107         0.00014460
 108        -0.00005006
 109         0.00000000
 110        -0.00000000
 111        -0.00000000
 112         0.00000000
 113         0.00000000
 114        -0.00000000
 115         0.00141018
 116        -0.00020479
 117        -0.00000000
 118         0.00000000
 119         0.00000000
 120         0.00132357
 121        -0.00019222
 122         0.00000000
 123         0.00000000
 124         0.00000000
Sym=     2a  
Ene=   -11.3520
Spin= Alpha
Occup=    2.00000
   1        -0.51527445
   2        -0.00132166
   3        -0.00250737
   4         0.00121832
   5        -0.00101166
   6         0.00000000
   7        -0.00010102
   8         0.00008389
   9        -0.00000000
  10        -0.00000000
  11        -0.00000000
  12        -0.00000000
  13        -0.00000000
  14         0.00000000
  15        -0.00257178
  16         0.00037349
  17        -0.00000000
  18        -0.00000000
  19        -0.00000000
  20        -0.44598590
  21        -0.00126532
  22        -0.00216008
  23        -0.00195800
  24         0.00080617
  25         0.00000000
  26         0.00016235
  27        -0.00006685
  28        -0.00000000
  29         0.00000000
  30        -0.00000000
  31         0.00000000
  32         0.00000000
  33        -0.00000000
  34        -0.00227507
  35         0.00033040
  36         0.00000000
  37        -0.00000000
  38        -0.00000000
  39        -0.00225218
  40         0.00032708
  41        -0.00000000
  42        -0.00000000
  43         0.00000000
  44        -0.18110547
  45        -0.00054860
  46        -0.00087426
  47         0.00257280
  48         0.00063891
  49         0.00000000
  50        -0.00021333
  51        -0.00005298
  52         0.00000000
  53        -0.00000000
  54         0.00000000
  55         0.00000000
  56        -0.00000000
  57        -0.00000000
  58        -0.00094077
  59         0.00013662
  60        -0.00000000
  61         0.00000000
  62        -0.00000000
  63         0.18110555
  64         0.00054860
  65         0.00087426
  66         0.00257280
  67         0.00063891
  68         0.00000000
  69        -0.00021333
  70        -0.00005298
  71        -0.00000000
  72        -0.00000000
  73        -0.00000000
  74        -0.00000000
  75         0.00000000
  76        -0.00000000
  77         0.00094077
  78        -0.00013662
  79        -0.00000000
  80        -0.00000000
  81        -0.00000000
  82         0.51527448
  83         0.00132166
  84         0.00250737
  85         0.00121832
  86        -0.00101166
  87         0.00000000
  88        -0.00010102
  89         0.00008389
  90         0.00000000
  91         0.00000000
  92        -0.00000000
  93        -0.00000000
  94        -0.00000000
  95         0.00000000
  96         0.00257178
  97        -0.00037349
  98         0.00000000
  99        -0.00000000
 100         0.00000000
 101         0.44598594
 102         0.00126532
 103         0.00216008
 104        -0.00195801
 105         0.00080617
 106         0.00000000
 107         0.00016235
 108        -0.00006685
 109        -0.00000000
 110        -0.00000000
 111        -0.00000000
 112         0.00000000
 113         0.00000000
 114        -0.00000000
 115         0.00227507
 116        -0.00033040
 117         0.00000000
 118         0.00000000
 119        -0.00000000
 120         0.00225218
 121        -0.00032708
 122         0.00000000
 123         0.00000000
 124         0.00000000
Sym=     3a  
Ene=   -11.3460
Spin= Alpha
Occup=    2.00000
   1         0.27065834
   2        -0.00007613
   3         0.00138134
   4        -0.00316022
   5         0.00001825
   6         0.00000000
   7         0.00026204
   8        -0.00000151
   9         0.00000000
  10        -0.00000000
  11        -0.00000000
  12        -0.00000000
  13         0.00000000
  14        -0.00000000
  15         0.00113463
  16        -0.00016478
  17         0.00000000
  18         0.00000000
  19        -0.00000000
  20         0.48472158
  21         0.00005558
  22         0.00245782
  23         0.00073808
  24        -0.00046080
  25         0.00000000
  26        -0.00006120
  27         0.00003821
  28        -0.00000000
  29         0.00000000
  30         0.00000000
  31         0.00000000
  32        -0.00000000
  33        -0.00000000
  34         0.00216689
  35        -0.00031469
  36        -0.00000000
  37        -0.00000000
  38        -0.00000000
  39         0.00225124
  40        -0.00032694
  41        -0.00000000
  42        -0.00000000
  43         0.00000000
  44        -0.43517455
  45         0.00016275
  46        -0.00222433
  47        -0.00239801
  48         0.00023284
  49         0.00000000
  50         0.00019884
  51        -0.00001931
  52         0.00000000
  53         0.00000000
  54        -0.00000000
  55         0.00000000
  56         0.00000000
  57         0.00000000
  58        -0.00183526
  59         0.00026653
  60        -0.00000000
  61        -0.00000000
  62        -0.00000000
  63        -0.43517454
  64         0.00016275
  65        -0.00222433
  66         0.00239801
  67        -0.00023284
  68        -0.00000000
  69        -0.00019884
  70         0.00001931
  71         0.00000000
  72        -0.00000000
  73        -0.00000000
  74        -0.00000000
  75         0.00000000
  76        -0.00000000
  77        -0.00183526
  78         0.00026653
  79         0.00000000
  80        -0.00000000
  81        -0.00000000
  82         0.27065833
  83        -0.00007613
  84         0.00138134
  85         0.00316022
  86        -0.00001825
  87        -0.00000000
  88        -0.00026204
  89         0.00000151
  90         0.00000000
  91         0.00000000
  92        -0.00000000
  93        -0.00000000
  94        -0.00000000
  95         0.00000000
  96         0.00113463
  97        -0.00016478
  98         0.00000000
  99         0.00000000
 100         0.00000000
 101         0.48472159
 102         0.00005558
 103         0.00245782
 104        -0.00073808
 105         0.00046080
 106         0.00000000
 107         0.00006120
 108        -0.00003821
 109         0.00000000
 110        -0.00000000
 111        -0.00000000
 112         0.00000000
 113         0.00000000
 114         0.00000000
 115         0.00216689
 116        -0.00031469
 117        -0.00000000
 118         0.00000000
 119        -0.00000000
 120         0.00225124
 121        -0.00032694
 122         0.00000000
 123        -0.00000000
 124         0.00000000
Sym=     4a  
Ene=   -11.3340
Spin= Alpha
Occup=    2.00000
   1         0.26760826
   2        -0.00113230
   3         0.00145398
   4         0.00268097
   5        -0.00003976
   6         0.00000000
   7        -0.00022230
   8         0.00000330
   9        -0.00000000
  10         0.00000000
  11        -0.00000000
  12        -0.00000000
  13         0.00000000
  14        -0.00000000
  15         0.00098788
  16        -0.00014347
  17        -0.00000000
  18         0.00000000
  19        -0.00000000
  20        -0.48630076
  21         0.00200482
  22        -0.00263779
  23         0.00117660
  24        -0.00038580
  25         0.00000000
  26        -0.00009756
  27         0.00003199
  28        -0.00000000
  29        -0.00000000
  30         0.00000000
  31         0.00000000
  32        -0.00000000
  33         0.00000000
  34        -0.00183327
  35         0.00026624
  36        -0.00000000
  37        -0.00000000
  38        -0.00000000
  39        -0.00191475
  40         0.00027807
  41         0.00000000
  42         0.00000000
  43         0.00000000
  44         0.43600514
  45        -0.00182904
  46         0.00236761
  47        -0.00213676
  48         0.00022322
  49         0.00000000
  50         0.00017718
  51        -0.00001851
  52        -0.00000000
  53         0.00000000
  54        -0.00000000
  55         0.00000000
  56        -0.00000000
  57         0.00000000
  58         0.00157861
  59        -0.00022926
  60         0.00000000
  61        -0.00000000
  62        -0.00000000
  63        -0.43600519
  64         0.00182904
  65        -0.00236761
  66        -0.00213676
  67         0.00022322
  68        -0.00000000
  69         0.00017718
  70        -0.00001851
  71         0.00000000
  72        -0.00000000
  73        -0.00000000
  74        -0.00000000
  75         0.00000000
  76        -0.00000000
  77        -0.00157861
  78         0.00022926
  79        -0.00000000
  80         0.00000000
  81        -0.00000000
  82        -0.26760823
  83         0.00113230
  84        -0.00145398
  85         0.00268097
  86        -0.00003976
  87        -0.00000000
  88        -0.00022230
  89         0.00000330
  90         0.00000000
  91         0.00000000
  92        -0.00000000
  93        -0.00000000
  94        -0.00000000
  95         0.00000000
  96        -0.00098788
  97         0.00014347
  98        -0.00000000
  99        -0.00000000
 100         0.00000000
 101         0.48630070
 102        -0.00200482
 103         0.00263779
 104         0.00117660
 105        -0.00038580
 106         0.00000000
 107        -0.00009756
 108         0.00003199
 109        -0.00000000
 110        -0.00000000
 111        -0.00000000
 112        -0.00000000
 113         0.00000000
 114         0.00000000
 115         0.00183327
 116        -0.00026624
 117         0.00000000
 118         0.00000000
 119        -0.00000000
 120         0.00191475
 121        -0.00027807
 122         0.00000000
 123         0.00000000
 124         0.00000000
Sym=     5a  
Ene=   -11.3290
Spin= Alpha
Occup=    2.00000
   1        -0.51276006
   2         0.00319415
   3        -0.00287146
   4        -0.00101517
   5         0.00101610
   6         0.00000000
   7         0.00008418
   8        -0.00008425
   9        -0.00000000
  10        -0.00000000
  11        -0.00000000
  12        -0.00000000
  13         0.00000000
  14         0.00000000
  15        -0.00176012
  16         0.00025561
  17        -0.00000000
  18         0.00000000
  19        -0.00000000
  20         0.44983106
  21        -0.00266518
  22         0.00250763
  23        -0.00172415
  24         0.00081610
  25         0.00000000
  26         0.00014296
  27        -0.00006767
  28        -0.00000000
  29         0.00000000
  30        -0.00000000
  31         0.00000000
  32         0.00000000
  33         0.00000000
  34         0.00164355
  35        -0.00023869
  36         0.00000000
  37         0.00000000
  38         0.00000000
  39         0.00161701
  40        -0.00023483
  41         0.00000000
  42         0.00000000
  43         0.00000000
  44         0.18218368
  45        -0.00119449
  46         0.00102520
  47         0.00152726
  48         0.00053070
  49         0.00000000
  50        -0.00012664
  51        -0.00004401
  52        -0.00000000
  53         0.00000000
  54        -0.00000000
  55         0.00000000
  56        -0.00000000
  57         0.00000000
  58         0.00059120
  59        -0.00008586
  60         0.00000000
  61         0.00000000
  62        -0.00000000
  63         0.18218370
  64        -0.00119449
  65         0.00102520
  66        -0.00152726
  67        -0.00053070
  68         0.00000000
  69         0.00012664
  70         0.00004401
  71        -0.00000000
  72        -0.00000000
  73        -0.00000000
  74        -0.00000000
  75         0.00000000
  76        -0.00000000
  77         0.00059120
  78        -0.00008586
  79        -0.00000000
  80         0.00000000
  81        -0.00000000
  82        -0.51276017
  83         0.00319415
  84        -0.00287146
  85         0.00101517
  86        -0.00101610
  87        -0.00000000
  88        -0.00008418
  89         0.00008425
  90         0.00000000
  91         0.00000000
  92        -0.00000000
  93        -0.00000000
  94        -0.00000000
  95        -0.00000000
  96        -0.00176012
  97         0.00025561
  98        -0.00000000
  99        -0.00000000
 100         0.00000000
 101         0.44983114
 102        -0.00266518
 103         0.00250763
 104         0.00172415
 105        -0.00081610
 106         0.00000000
 107        -0.00014296
 108         0.00006767
 109         0.00000000
 110        -0.00000000
 111        -0.00000000
 112         0.00000000
 113         0.00000000
 114         0.00000000
 115         0.00164355
 116        -0.00023869
 117         0.00000000
 118         0.00000000
 119        -0.00000000
 120         0.00161701
 121        -0.00023483
 122         0.00000000
 123         0.00000000
 124         0.00000000
Sym=     6a  
Ene=   -11.3260
Spin= Alpha
Occup=    2.00000
   1        -0.40082372
   2         0.00303856
   3        -0.00228982
   4         0.00025570
   5         0.00126736
   6        -0.00000000
   7        -0.00002120
   8        -0.00010509
   9         0.00000000
  10        -0.00000000
  11         0.00000000
  12         0.00000000
  13        -0.00000000
  14        -0.00000000
  15        -0.00136592
  16         0.00019837
  17        -0.00000000
  18         0.00000000
  19         0.00000000
  20         0.24994968
  21        -0.00177916
  22         0.00141826
  23        -0.00115612
  24         0.00066869
  25         0.00000000
  26         0.00009586
  27        -0.00005545
  28         0.00000000
  29         0.00000000
  30         0.00000000
  31        -0.00000000
  32         0.00000000
  33         0.00000000
  34         0.00092377
  35        -0.00013415
  36         0.00000000
  37         0.00000000
  38        -0.00000000
  39         0.00083553
  40        -0.00012134
  41        -0.00000000
  42        -0.00000000
  43        -0.00000000
  44         0.52482330
  45        -0.00386017
  46         0.00298833
  47        -0.00068830
  48         0.00152181
  49         0.00000000
  50         0.00005707
  51        -0.00012619
  52        -0.00000000
  53        -0.00000000
  54         0.00000000
  55         0.00000000
  56        -0.00000000
  57         0.00000000
  58         0.00181541
  59        -0.00026365
  60        -0.00000000
  61         0.00000000
  62         0.00000000
  63        -0.52482329
  64         0.00386017
  65        -0.00298833
  66        -0.00068830
  67         0.00152181
  68        -0.00000000
  69         0.00005707
  70        -0.00012619
  71         0.00000000
  72         0.00000000
  73         0.00000000
  74         0.00000000
  75        -0.00000000
  76         0.00000000
  77        -0.00181541
  78         0.00026365
  79         0.00000000
  80        -0.00000000
  81         0.00000000
  82         0.40082364
  83        -0.00303856
  84         0.00228982
  85         0.00025570
  86         0.00126736
  87         0.00000000
  88        -0.00002120
  89        -0.00010509
  90        -0.00000000
  91        -0.00000000
  92         0.00000000
  93         0.00000000
  94         0.00000000
  95        -0.00000000
  96         0.00136592
  97        -0.00019837
  98        -0.00000000
  99        -0.00000000
 100        -0.00000000
 101        -0.24994961
 102         0.00177916
 103        -0.00141826
 104        -0.00115612
 105         0.00066869
 106         0.00000000
 107         0.00009586
 108        -0.00005545
 109        -0.00000000
 110         0.00000000
 111         0.00000000
 112         0.00000000
 113        -0.00000000
 114        -0.00000000
 115        -0.00092377
 116         0.00013415
 117        -0.00000000
 118        -0.00000000
 119        -0.00000000
 120        -0.00083553
 121         0.00012134
 122        -0.00000000
 123        -0.00000000
 124        -0.00000000
Sym=     7a  
Ene=    -1.6463
Spin= Alpha
Occup=    2.00000
   1        -0.03760136
   2         0.25282849
   3        -0.02129050
   4         0.03584643
   5         0.02829960
   6        -0.00000000
   7        -0.00297233
   8        -0.00234656
   9         0.00000000
  10         0.00000000
  11         0.00000000
  12         0.00000000
  13         0.00000000
  14         0.00000000
  15         0.11261576
  16        -0.01635474
  17        -0.00000000
  18        -0.00000000
  19         0.00000000
  20        -0.02295508
  21         0.16013211
  22        -0.01348024
  23         0.05217480
  24        -0.00778221
  25        -0.00000000
  26        -0.00432625
  27         0.00064529
  28         0.00000000
  29        -0.00000000
  30        -0.00000000
  31        -0.00000000
  32        -0.00000000
  33         0.00000000
  34         0.07264399
  35        -0.01054980
  36        -0.00000000
  37         0.00000000
  38         0.00000000
  39         0.05826715
  40        -0.00846191
  41        -0.00000000
  42         0.00000000
  43        -0.00000000
  44        -0.04753255
  45         0.31634369
  46        -0.02664154
  47         0.01924438
  48        -0.02879366
  49        -0.00000000
  50        -0.00159571
  51         0.00238753
  52        -0.00000000
  53         0.00000000
  54         0.00000000
  55        -0.00000000
  56        -0.00000000
  57         0.00000000
  58         0.14102709
  59        -0.02048080
  60         0.00000000
  61        -0.00000000
  62         0.00000000
  63        -0.04753255
  64         0.31634367
  65        -0.02664153
  66        -0.01924439
  67         0.02879367
  68         0.00000000
  69         0.00159572
  70        -0.00238753
  71         0.00000000
  72        -0.00000000
  73         0.00000000
  74         0.00000000
  75         0.00000000
  76        -0.00000000
  77         0.14102707
  78        -0.02048080
  79         0.00000000
  80         0.00000000
  81         0.00000000
  82        -0.03760136
  83         0.25282848
  84        -0.02129050
  85        -0.03584643
  86        -0.02829960
  87        -0.00000000
  88         0.00297233
  89         0.00234656
  90         0.00000000
  91         0.00000000
  92         0.00000000
  93         0.00000000
  94        -0.00000000
  95        -0.00000000
  96         0.11261575
  97        -0.01635474
  98        -0.00000000
  99        -0.00000000
 100        -0.00000000
 101        -0.02295508
 102         0.16013210
 103        -0.01348024
 104        -0.05217479
 105         0.00778221
 106        -0.00000000
 107         0.00432625
 108        -0.00064529
 109         0.00000000