[Molden Format]
[N_Atoms]
                   14
[Atoms] (AU)
C1          1      6          -3.51113187     -0.94600206      0.00000000
H2          2      1          -3.31970921     -2.98778639      0.00000000
C3          3      6          -5.84207751      0.08118953      0.00000000
H4          4      1          -6.11958932      2.11037854      0.00000000
H5          5      1          -7.51974590     -1.08721377      0.00000000
C6          6      6          -1.16860550      0.51936985      0.00000000
H7          7      1          -1.35467842      2.56261735      0.00000000
C8          8      6           1.16860571     -0.51937031      0.00000000
H9          9      1           1.35467848     -2.56261788      0.00000000
C10        10      6           3.51113183      0.94600208      0.00000000
H11        11      1           3.31970911      2.98778647      0.00000000
C12        12      6           5.84207756     -0.08118932      0.00000000
H13        13      1           6.11958930     -2.11037831      0.00000000
H14        14      1           7.51974573      1.08721424      0.00000000
[5D]
[7F]
[9G]
[Charge] (Mulliken)
  -8.4862232766425905E-002
   1.6899496722342811E-002
  -5.6954639735016244E-003
   3.5191753480959931E-002
   4.4447138010708542E-002
  -1.9790593411804558E-002
   1.3809879782301193E-002
  -1.9790601971755528E-002
   1.3809915297367192E-002
  -8.4862257178865974E-002
   1.6899529937938529E-002
  -5.6954408959919434E-003
   3.5191748314703730E-002
   4.4447128650665024E-002
[GTO] (AU)
   1
   s   9
  6.665000000E+03  6.920001793E-04
  1.000000000E+03  5.329001381E-03
  2.280000000E+02  2.707700701E-02
  6.471000000E+01  1.017180264E-01
  2.106000000E+01  2.747400712E-01
  7.495000000E+00  4.485641162E-01
  2.797000000E+00  2.850740738E-01
  5.215000000E-01  1.520400394E-02
  1.596000000E-01 -3.191000827E-03
   s   9
  6.665000000E+03 -1.460000642E-04
  1.000000000E+03 -1.154000508E-03
  2.280000000E+02 -5.725002519E-03
  6.471000000E+01 -2.331201026E-02
  2.106000000E+01 -6.395502813E-02
  7.495000000E+00 -1.499810660E-01
  2.797000000E+00 -1.272620560E-01
  5.215000000E-01  5.445292395E-01
  1.596000000E-01  5.804962554E-01
   s   1
  1.596000000E-01  1.000000000E+00
   p   4
  9.439000000E+00  3.810902127E-02
  2.002000000E+00  2.094801169E-01
  5.456000000E-01  5.085572839E-01
  1.517000000E-01  4.688422617E-01
   p   1
  1.517000000E-01  1.000000000E+00
   d   1
  5.500000000E-01  1.000000000E+00
 
   2
   s   4
  1.301000000E+01  1.968498999E-02
  1.962000000E+00  1.379769298E-01
  4.446000000E-01  4.781477569E-01
  1.220000000E-01  5.012397451E-01
   s   1
  1.220000000E-01  1.000000000E+00
   p   1
  7.270000000E-01  1.000000000E+00
 
   3
   s   9
  6.665000000E+03  6.920001793E-04
  1.000000000E+03  5.329001381E-03
  2.280000000E+02  2.707700701E-02
  6.471000000E+01  1.017180264E-01
  2.106000000E+01  2.747400712E-01
  7.495000000E+00  4.485641162E-01
  2.797000000E+00  2.850740738E-01
  5.215000000E-01  1.520400394E-02
  1.596000000E-01 -3.191000827E-03
   s   9
  6.665000000E+03 -1.460000642E-04
  1.000000000E+03 -1.154000508E-03
  2.280000000E+02 -5.725002519E-03
  6.471000000E+01 -2.331201026E-02
  2.106000000E+01 -6.395502813E-02
  7.495000000E+00 -1.499810660E-01
  2.797000000E+00 -1.272620560E-01
  5.215000000E-01  5.445292395E-01
  1.596000000E-01  5.804962554E-01
   s   1
  1.596000000E-01  1.000000000E+00
   p   4
  9.439000000E+00  3.810902127E-02
  2.002000000E+00  2.094801169E-01
  5.456000000E-01  5.085572839E-01
  1.517000000E-01  4.688422617E-01
   p   1
  1.517000000E-01  1.000000000E+00
   d   1
  5.500000000E-01  1.000000000E+00
 
   4
   s   4
  1.301000000E+01  1.968498999E-02
  1.962000000E+00  1.379769298E-01
  4.446000000E-01  4.781477569E-01
  1.220000000E-01  5.012397451E-01
   s   1
  1.220000000E-01  1.000000000E+00
   p   1
  7.270000000E-01  1.000000000E+00
 
   5
   s   4
  1.301000000E+01  1.968498999E-02
  1.962000000E+00  1.379769298E-01
  4.446000000E-01  4.781477569E-01
  1.220000000E-01  5.012397451E-01
   s   1
  1.220000000E-01  1.000000000E+00
   p   1
  7.270000000E-01  1.000000000E+00
 
   6
   s   9
  6.665000000E+03  6.920001793E-04
  1.000000000E+03  5.329001381E-03
  2.280000000E+02  2.707700701E-02
  6.471000000E+01  1.017180264E-01
  2.106000000E+01  2.747400712E-01
  7.495000000E+00  4.485641162E-01
  2.797000000E+00  2.850740738E-01
  5.215000000E-01  1.520400394E-02
  1.596000000E-01 -3.191000827E-03
   s   9
  6.665000000E+03 -1.460000642E-04
  1.000000000E+03 -1.154000508E-03
  2.280000000E+02 -5.725002519E-03
  6.471000000E+01 -2.331201026E-02
  2.106000000E+01 -6.395502813E-02
  7.495000000E+00 -1.499810660E-01
  2.797000000E+00 -1.272620560E-01
  5.215000000E-01  5.445292395E-01
  1.596000000E-01  5.804962554E-01
   s   1
  1.596000000E-01  1.000000000E+00
   p   4
  9.439000000E+00  3.810902127E-02
  2.002000000E+00  2.094801169E-01
  5.456000000E-01  5.085572839E-01
  1.517000000E-01  4.688422617E-01
   p   1
  1.517000000E-01  1.000000000E+00
   d   1
  5.500000000E-01  1.000000000E+00
 
   7
   s   4
  1.301000000E+01  1.968498999E-02
  1.962000000E+00  1.379769298E-01
  4.446000000E-01  4.781477569E-01
  1.220000000E-01  5.012397451E-01
   s   1
  1.220000000E-01  1.000000000E+00
   p   1
  7.270000000E-01  1.000000000E+00
 
   8
   s   9
  6.665000000E+03  6.920001793E-04
  1.000000000E+03  5.329001381E-03
  2.280000000E+02  2.707700701E-02
  6.471000000E+01  1.017180264E-01
  2.106000000E+01  2.747400712E-01
  7.495000000E+00  4.485641162E-01
  2.797000000E+00  2.850740738E-01
  5.215000000E-01  1.520400394E-02
  1.596000000E-01 -3.191000827E-03
   s   9
  6.665000000E+03 -1.460000642E-04
  1.000000000E+03 -1.154000508E-03
  2.280000000E+02 -5.725002519E-03
  6.471000000E+01 -2.331201026E-02
  2.106000000E+01 -6.395502813E-02
  7.495000000E+00 -1.499810660E-01
  2.797000000E+00 -1.272620560E-01
  5.215000000E-01  5.445292395E-01
  1.596000000E-01  5.804962554E-01
   s   1
  1.596000000E-01  1.000000000E+00
   p   4
  9.439000000E+00  3.810902127E-02
  2.002000000E+00  2.094801169E-01
  5.456000000E-01  5.085572839E-01
  1.517000000E-01  4.688422617E-01
   p   1
  1.517000000E-01  1.000000000E+00
   d   1
  5.500000000E-01  1.000000000E+00
 
   9
   s   4
  1.301000000E+01  1.968498999E-02
  1.962000000E+00  1.379769298E-01
  4.446000000E-01  4.781477569E-01
  1.220000000E-01  5.012397451E-01
   s   1
  1.220000000E-01  1.000000000E+00
   p   1
  7.270000000E-01  1.000000000E+00
 
  10
   s   9
  6.665000000E+03  6.920001793E-04
  1.000000000E+03  5.329001381E-03
  2.280000000E+02  2.707700701E-02
  6.471000000E+01  1.017180264E-01
  2.106000000E+01  2.747400712E-01
  7.495000000E+00  4.485641162E-01
  2.797000000E+00  2.850740738E-01
  5.215000000E-01  1.520400394E-02
  1.596000000E-01 -3.191000827E-03
   s   9
  6.665000000E+03 -1.460000642E-04
  1.000000000E+03 -1.154000508E-03
  2.280000000E+02 -5.725002519E-03
  6.471000000E+01 -2.331201026E-02
  2.106000000E+01 -6.395502813E-02
  7.495000000E+00 -1.499810660E-01
  2.797000000E+00 -1.272620560E-01
  5.215000000E-01  5.445292395E-01
  1.596000000E-01  5.804962554E-01
   s   1
  1.596000000E-01  1.000000000E+00
   p   4
  9.439000000E+00  3.810902127E-02
  2.002000000E+00  2.094801169E-01
  5.456000000E-01  5.085572839E-01
  1.517000000E-01  4.688422617E-01
   p   1
  1.517000000E-01  1.000000000E+00
   d   1
  5.500000000E-01  1.000000000E+00
 
  11
   s   4
  1.301000000E+01  1.968498999E-02
  1.962000000E+00  1.379769298E-01
  4.446000000E-01  4.781477569E-01
  1.220000000E-01  5.012397451E-01
   s   1
  1.220000000E-01  1.000000000E+00
   p   1
  7.270000000E-01  1.000000000E+00
 
  12
   s   9
  6.665000000E+03  6.920001793E-04
  1.000000000E+03  5.329001381E-03
  2.280000000E+02  2.707700701E-02
  6.471000000E+01  1.017180264E-01
  2.106000000E+01  2.747400712E-01
  7.495000000E+00  4.485641162E-01
  2.797000000E+00  2.850740738E-01
  5.215000000E-01  1.520400394E-02
  1.596000000E-01 -3.191000827E-03
   s   9
  6.665000000E+03 -1.460000642E-04
  1.000000000E+03 -1.154000508E-03
  2.280000000E+02 -5.725002519E-03
  6.471000000E+01 -2.331201026E-02
  2.106000000E+01 -6.395502813E-02
  7.495000000E+00 -1.499810660E-01
  2.797000000E+00 -1.272620560E-01
  5.215000000E-01  5.445292395E-01
  1.596000000E-01  5.804962554E-01
   s   1
  1.596000000E-01  1.000000000E+00
   p   4
  9.439000000E+00  3.810902127E-02
  2.002000000E+00  2.094801169E-01
  5.456000000E-01  5.085572839E-01
  1.517000000E-01  4.688422617E-01
   p   1
  1.517000000E-01  1.000000000E+00
   d   1
  5.500000000E-01  1.000000000E+00
 
  13
   s   4
  1.301000000E+01  1.968498999E-02
  1.962000000E+00  1.379769298E-01
  4.446000000E-01  4.781477569E-01
  1.220000000E-01  5.012397451E-01
   s   1
  1.220000000E-01  1.000000000E+00
   p   1
  7.270000000E-01  1.000000000E+00
 
  14
   s   4
  1.301000000E+01  1.968498999E-02
  1.962000000E+00  1.379769298E-01
  4.446000000E-01  4.781477569E-01
  1.220000000E-01  5.012397451E-01
   s   1
  1.220000000E-01  1.000000000E+00
   p   1
  7.270000000E-01  1.000000000E+00
 
[MO]
Sym=     1a  
Ene=   -11.2330
Spin= Alpha
Occup=    2.00000
   1         0.64316697
   2         0.00542508
   3        -0.00643691
   4         0.00007491
   5        -0.00011262
   6        -0.00000000
   7         0.00068285
   8        -0.00072011
   9         0.00000000
  10        -0.00027819
  11         0.00000000
  12         0.00000000
  13         0.00004750
  14        -0.00017635
  15        -0.00043670
  16         0.00085119
  17        -0.00003238
  18        -0.00028856
  19        -0.00000000
  20         0.05785768
  21        -0.00026161
  22         0.00204130
  23        -0.00012286
  24         0.00002408
  25         0.00000000
  26         0.00120247
  27        -0.00019198
  28        -0.00000000
  29         0.00011890
  30         0.00000000
  31        -0.00000000
  32         0.00002893
  33         0.00001597
  34        -0.00007949
  35         0.00019429
  36         0.00001877
  37        -0.00006530
  38         0.00000000
  39         0.00003161
  40         0.00033463
  41         0.00004683
  42         0.00001258
  43        -0.00000000
  44         0.29008403
  45         0.00191572
  46        -0.00071253
  47        -0.00005863
  48         0.00007090
  49        -0.00000000
  50        -0.00020558
  51         0.00015921
  52         0.00000000
  53         0.00007690
  54        -0.00000000
  55         0.00000000
  56         0.00003006
  57        -0.00020114
  58        -0.00024765
  59         0.00037773
  60         0.00002887
  61         0.00003789
  62         0.00000000
  63         0.29009098
  64         0.00191578
  65        -0.00071265
  66         0.00005862
  67        -0.00007090
  68         0.00000000
  69         0.00020569
  70        -0.00015923
  71        -0.00000000
  72         0.00007691
  73        -0.00000000
  74         0.00000000
  75         0.00003006
  76        -0.00020115
  77        -0.00024765
  78         0.00037774
  79        -0.00002888
  80        -0.00003789
  81         0.00000000
  82         0.64319953
  83         0.00542537
  84        -0.00643726
  85        -0.00007492
  86         0.00011263
  87         0.00000000
  88        -0.00068284
  89         0.00072015
  90        -0.00000000
  91        -0.00027820
  92         0.00000000
  93        -0.00000000
  94         0.00004750
  95        -0.00017636
  96        -0.00043672
  97         0.00085123
  98         0.00003238
  99         0.00028858
 100         0.00000000
 101         0.05786056
 102        -0.00026161
 103         0.00204136
 104         0.00012287
 105        -0.00002408
 106         0.00000000
 107        -0.00120251
 108         0.00019199
 109         0.00000000
 110         0.00011891
 111        -0.00000000
 112        -0.00000000
 113         0.00002893
 114         0.00001597
 115        -0.00007949
 116         0.00019429
 117        -0.00001878
 118         0.00006530
 119        -0.00000000
 120         0.00003161
 121         0.00033464
 122        -0.00004683
 123        -0.00001258
 124        -0.00000000
Sym=     2a  
Ene=   -11.2320
Spin= Alpha
Occup=    2.00000
   1        -0.69417439
   2        -0.00613792
   3         0.00744630
   4        -0.00014379
   5         0.00009789
   6        -0.00000000
   7         0.00027659
   8         0.00094471
   9         0.00000000
  10         0.00033686
  11        -0.00000000
  12        -0.00000000
  13        -0.00004913
  14         0.00015127
  15         0.00044245
  16        -0.00083704
  17        -0.00001138
  18         0.00033658
  19        -0.00000000
  20        -0.06353634
  21         0.00003291
  22        -0.00122881
  23         0.00009945
  24        -0.00004185
  25        -0.00000000
  26        -0.00073778
  27         0.00004848
  28        -0.00000000
  29        -0.00019624
  30         0.00000000
  31         0.00000000
  32        -0.00002634
  33        -0.00002272
  34        -0.00003707
  35        -0.00002112
  36        -0.00003484
  37         0.00007285
  38         0.00000000
  39        -0.00006794
  40        -0.00019842
  41        -0.00006339
  42        -0.00000491
  43         0.00000000
  44        -0.12474310
  45        -0.00123402
  46         0.00204204
  47        -0.00010213
  48        -0.00004380
  49        -0.00000000
  50         0.00227298
  51        -0.00031538
  52         0.00000000
  53        -0.00023347
  54        -0.00000000
  55         0.00000000
  56        -0.00001534
  57         0.00019383
  58        -0.00005368
  59        -0.00009167
  60        -0.00010182
  61         0.00002589
  62        -0.00000000
  63         0.12472934
  64         0.00123392
  65        -0.00204201
  66        -0.00010213
  67        -0.00004380
  68        -0.00000000
  69         0.00227297
  70        -0.00031537
  71         0.00000000
  72         0.00023346
  73         0.00000000
  74        -0.00000000
  75         0.00001534
  76        -0.00019382
  77         0.00005369
  78         0.00009165
  79        -0.00010182
  80         0.00002589
  81        -0.00000000
  82         0.69414410
  83         0.00613766
  84        -0.00744599
  85        -0.00014379
  86         0.00009789
  87        -0.00000000
  88         0.00027662
  89         0.00094468
  90         0.00000000
  91        -0.00033684
  92         0.00000000
  93         0.00000000
  94         0.00004912
  95        -0.00015126
  96        -0.00044242
  97         0.00083700
  98        -0.00001138
  99         0.00033657
 100         0.00000000
 101         0.06353351
 102        -0.00003290
 103         0.00122871
 104         0.00009944
 105        -0.00004185
 106        -0.00000000
 107        -0.00073773
 108         0.00004847
 109         0.00000000
 110         0.00019624
 111         0.00000000
 112        -0.00000000
 113         0.00002634
 114         0.00002272
 115         0.00003707
 116         0.00002111
 117        -0.00003484
 118         0.00007285
 119         0.00000000
 120         0.00006794
 121         0.00019840
 122        -0.00006339
 123        -0.00000491
 124        -0.00000000
Sym=     3a  
Ene=   -11.2320
Spin= Alpha
Occup=    2.00000
   1        -0.28890827
   2        -0.00287127
   3         0.00478262
   4        -0.00009073
   5         0.00003335
   6         0.00000000
   7         0.00115391
   8         0.00066915
   9        -0.00000000
  10         0.00032236
  11        -0.00000000
  12         0.00000000
  13         0.00005995
  14        -0.00013509
  15         0.00021136
  16        -0.00042880
  17        -0.00007887
  18         0.00022073
  19         0.00000000
  20        -0.03055076
  21        -0.00026999
  22         0.00019721
  23        -0.00004720
  24        -0.00000004
  25         0.00000000
  26        -0.00006705
  27        -0.00011805
  28        -0.00000000
  29        -0.00016429
  30         0.00000000
  31        -0.00000000
  32        -0.00002237
  33         0.00003560
  34        -0.00009596
  35        -0.00000682
  36        -0.00004718
  37         0.00004405
  38         0.00000000
  39        -0.00014450
  40         0.00004029
  41        -0.00004465
  42        -0.00001056
  43         0.00000000
  44         0.64572025
  45         0.00542551
  46        -0.00649428
  47        -0.00023527
  48         0.00009205
  49         0.00000000
  50         0.00148293
  51         0.00084473
  52        -0.00000000
  53        -0.00020876
  54         0.00000000
  55        -0.00000000
  56         0.00009583
  57         0.00001675
  58        -0.00026038
  59         0.00086957
  60        -0.00000593
  61         0.00023048
  62        -0.00000000
  63         0.64572547
  64         0.00542556
  65        -0.00649436
  66         0.00023527
  67        -0.00009205
  68         0.00000000
  69        -0.00148292
  70        -0.00084474
  71         0.00000000
  72        -0.00020876
  73         0.00000000
  74         0.00000000
  75         0.00009583
  76         0.00001675
  77        -0.00026038
  78         0.00086957
  79         0.00000593
  80        -0.00023048
  81        -0.00000000
  82        -0.28890912
  83        -0.00287128
  84         0.00478263
  85         0.00009073
  86        -0.00003335
  87         0.00000000
  88        -0.00115392
  89        -0.00066915
  90        -0.00000000
  91         0.00032236
  92         0.00000000
  93        -0.00000000
  94         0.00005995
  95        -0.00013509
  96         0.00021136
  97        -0.00042880
  98         0.00007887
  99        -0.00022073
 100        -0.00000000
 101        -0.03055081
 102        -0.00026999
 103         0.00019721
 104         0.00004720
 105         0.00000004
 106         0.00000000
 107         0.00006705
 108         0.00011805
 109        -0.00000000
 110        -0.00016429
 111         0.00000000
 112         0.00000000
 113        -0.00002237
 114         0.00003560
 115        -0.00009596
 116        -0.00000682
 117         0.00004718
 118        -0.00004405
 119         0.00000000
 120        -0.00014450
 121         0.00004029
 122         0.00004465
 123         0.00001056
 124        -0.00000000
Sym=     4a  
Ene=   -11.2300
Spin= Alpha
Occup=    2.00000
   1        -0.12381086
   2        -0.00123859
   3         0.00213588
   4        -0.00010624
   5        -0.00001712
   6         0.00000000
   7         0.00112340
   8         0.00018986
   9        -0.00000000
  10         0.00037179
  11        -0.00000000
  12         0.00000000
  13        -0.00007059
  14        -0.00017083
  15         0.00009732
  16        -0.00010542
  17        -0.00003430
  18         0.00014697
  19        -0.00000000
  20        -0.01645831
  21        -0.00009822
  22         0.00056803
  23         0.00003036
  24        -0.00001477
  25        -0.00000000
  26        -0.00002317
  27        -0.00021228
  28         0.00000000
  29        -0.00012083
  30        -0.00000000
  31         0.00000000
  32        -0.00005197
  33        -0.00002053
  34        -0.00012020
  35        -0.00000763
  36        -0.00003472
  37         0.00005312
  38         0.00000000
  39        -0.00012341
  40        -0.00002867
  41        -0.00002907
  42         0.00000283
  43        -0.00000000
  44         0.69743037
  45         0.00690738
  46        -0.01081342
  47        -0.00000839
  48         0.00009594
  49         0.00000000
  50        -0.00131581
  51         0.00132582
  52        -0.00000000
  53        -0.00066812
  54         0.00000000
  55         0.00000000
  56        -0.00004740
  57        -0.00007415
  58        -0.00062618
  59         0.00087851
  60        -0.00003490
  61         0.00050257
  62        -0.00000000
  63        -0.69742511
  64        -0.00690733
  65         0.01081337
  66        -0.00000839
  67         0.00009594
  68        -0.00000000
  69        -0.00131582
  70         0.00132581
  71         0.00000000
  72         0.00066812
  73         0.00000000
  74         0.00000000
  75         0.00004740
  76         0.00007415
  77         0.00062618
  78        -0.00087850
  79        -0.00003490
  80         0.00050257
  81        -0.00000000
  82         0.12380969
  83         0.00123858
  84        -0.00213585
  85        -0.00010624
  86        -0.00001712
  87         0.00000000
  88         0.00112339
  89         0.00018986
  90         0.00000000
  91        -0.00037179
  92         0.00000000
  93         0.00000000
  94         0.00007059
  95         0.00017083
  96        -0.00009732
  97         0.00010541
  98        -0.00003430
  99         0.00014697
 100        -0.00000000
 101         0.01645813
 102         0.00009822
 103        -0.00056802
 104         0.00003036
 105        -0.00001477
 106         0.00000000
 107        -0.00002318
 108        -0.00021228
 109        -0.00000000
 110         0.00012083
 111        -0.00000000
 112         0.00000000
 113         0.00005197
 114         0.00002053
 115         0.00012020
 116         0.00000763
 117        -0.00003472
 118         0.00005312
 119        -0.00000000
 120         0.00012341
 121         0.00002867
 122        -0.00002907
 123         0.00000283
 124         0.00000000
Sym=     5a  
Ene=   -11.2240
Spin= Alpha
Occup=    2.00000
   1        -0.06650929
   2        -0.00106007
   3         0.00154929
   4         0.00010008
   5         0.00000321
   6        -0.00000000
   7        -0.00076487
   8         0.00005625
   9         0.00000000
  10         0.00032044
  11         0.00000000
  12        -0.00000000
  13         0.00004739
  14        -0.00000542
  15         0.00023141
  16        -0.00006630
  17        -0.00004854
  18         0.00018203
  19         0.00000000
  20         0.71180092
  21         0.00614610
  22        -0.00655747
  23        -0.00017586
  24         0.00008542
  25        -0.00000000
  26        -0.00024162
  27         0.00010468
  28        -0.00000000
  29        -0.00055100
  30        -0.00000000
  31         0.00000000
  32         0.00003622
  33        -0.00000730
  34        -0.00049424
  35         0.00110593
  36        -0.00001641
  37         0.00041552
  38         0.00000000
  39        -0.00054056
  40         0.00111761
  41        -0.00032609
  42        -0.00027644
  43        -0.00000000
  44         0.00404995
  45        -0.00019797
  46         0.00073703
  47        -0.00003543
  48        -0.00002048
  49        -0.00000000
  50        -0.00042454
  51        -0.00012820
  52        -0.00000000
  53        -0.00009838
  54         0.00000000
  55         0.00000000
  56         0.00011378
  57         0.00006663
  58        -0.00002586
  59        -0.00002559
  60         0.00003762
  61        -0.00000460
  62         0.00000000
  63         0.00395430
  64        -0.00019820
  65         0.00073375
  66         0.00003574
  67         0.00001940
  68         0.00000000
  69         0.00040736
  70         0.00012831
  71        -0.00000000
  72        -0.00009597
  73         0.00000000
  74        -0.00000000
  75         0.00011241
  76         0.00006619
  77        -0.00002408
  78        -0.00002408
  79        -0.00003655
  80         0.00000509
  81         0.00000000
  82        -0.06524796
  83        -0.00104134
  84         0.00151804
  85        -0.00009735
  86        -0.00000306
  87         0.00000000
  88         0.00073984
  89        -0.00005503
  90        -0.00000000
  91         0.00031414
  92         0.00000000
  93         0.00000000
  94         0.00004648
  95        -0.00000523
  96         0.00022604
  97        -0.00006298
  98         0.00004802
  99        -0.00017872
 100         0.00000000
 101         0.69832101
 102         0.00602808
 103        -0.00642260
 104         0.00017240
 105        -0.00008373
 106         0.00000000
 107         0.00023295
 108        -0.00010015
 109        -0.00000000
 110        -0.00054095
 111        -0.00000000
 112        -0.00000000
 113         0.00003549
 114        -0.00000725
 115        -0.00048554
 116         0.00108609
 117         0.00001625
 118        -0.00040777
 119         0.00000000
 120        -0.00053106
 121         0.00109715
 122         0.00032004
 123         0.00027113
 124        -0.00000000
Sym=     6a  
Ene=   -11.2240
Spin= Alpha
Occup=    2.00000
   1        -0.06533887
   2        -0.00096938
   3         0.00161999
   4         0.00014198
   5         0.00000783
   6        -0.00000000
   7        -0.00130204
   8         0.00006314
   9         0.00000000
  10         0.00032643
  11         0.00000000
  12        -0.00000000
  13         0.00004719
  14        -0.00000952
  15         0.00027889
  16        -0.00017303
  17        -0.00002667
  18         0.00017161
  19        -0.00000000
  20         0.69833035
  21         0.00611512
  22        -0.00699250
  23        -0.00017923
  24         0.00008733
  25        -0.00000000
  26        -0.00045079
  27         0.00023612
  28        -0.00000000
  29        -0.00052062
  30         0.00000000
  31         0.00000000
  32         0.00003820
  33        -0.00000257
  34        -0.00045024
  35         0.00102775
  36        -0.00000846
  37         0.00040162
  38         0.00000000
  39        -0.00049166
  40         0.00105966
  41        -0.00031327
  42        -0.00027538
  43        -0.00000000
  44         0.00496369
  45         0.00001376
  46         0.00016458
  47         0.00001648
  48        -0.00005637
  49        -0.00000000
  50        -0.00089506
  51         0.00000674
  52        -0.00000000
  53        -0.00012512
  54         0.00000000
  55         0.00000000
  56         0.00007064
  57         0.00002220
  58        -0.00009297
  59        -0.00007892
  60         0.00005528
  61         0.00002577
  62         0.00000000
  63        -0.00504019
  64        -0.00000997
  65        -0.00017864
  66         0.00001580
  67        -0.00005675
  68        -0.00000000
  69        -0.00090301
  70         0.00000429
  71         0.00000000
  72         0.00012698
  73         0.00000000
  74         0.00000000
  75        -0.00007280
  76        -0.00002347
  77         0.00009344
  78         0.00007940
  79         0.00005598
  80         0.00002567
  81        -0.00000000
  82         0.06659827
  83         0.00098946
  84        -0.00164931
  85         0.00014387
  86         0.00000789
  87        -0.00000000
  88        -0.00131642
  89         0.00006420
  90        -0.00000000
  91        -0.00033250
  92        -0.00000000
  93         0.00000000
  94        -0.00004808
  95         0.00000962
  96        -0.00028326
  97         0.00017427
  98        -0.00002759
  99         0.00017506
 100        -0.00000000
 101        -0.71181011
 102        -0.00623150
 103         0.00711658
 104        -0.00018256
 105         0.00008895
 106        -0.00000000
 107        -0.00045532
 108         0.00023807
 109         0.00000000
 110         0.00053106
 111         0.00000000
 112         0.00000000
 113        -0.00003888
 114         0.00000271
 115         0.00045960
 116        -0.00104870
 117        -0.00000877
 118         0.00040949
 119        -0.00000000
 120         0.00050191
 121        -0.00108083
 122        -0.00031945
 123        -0.00028062
 124         0.00000000
Sym=     7a  
Ene=    -1.0995
Spin= Alpha
Occup=    2.00000
   1        -0.01342091
   2         0.35502868
   3        -0.09064679
   4         0.02572897
   5         0.05772635
   6        -0.00000000
   7        -0.02545275
   8         0.00399223
   9         0.00000000
  10        -0.00968296
  11         0.00000000
  12        -0.00000000
  13         0.01169331
  14         0.00339895
  15         0.11147204
  16        -0.04554830
  17        -0.00034779
  18         0.01041009
  19         0.00000000
  20        -0.00819096
  21         0.20982009
  22        -0.08357883
  23         0.07458250
  24        -0.02349609
  25        -0.00000000
  26        -0.03757528
  27         0.00539969
  28         0.00000000
  29        -0.00238859
  30        -0.00000000
  31         0.00000000
  32         0.00754783
  33        -0.00348664
  34         0.06668814
  35        -0.02995617
  36         0.00167965
  37        -0.00683289
  38        -0.00000000
  39         0.05354959
  40        -0.02836869
  41         0.00540908
  42         0.00192970
  43        -0.00000000
  44        -0.01699932
  45         0.46338796
  46        -0.13733140
  47         0.04379097
  48        -0.06855741
  49         0.00000000
  50        -0.01581707
  51        -0.00861814
  52        -0.00000000
  53        -0.01069579
  54         0.00000000
  55        -0.00000000
  56         0.01462575
  57         0.00048151
  58         0.14605799
  59        -0.05845533
  60         0.00149315
  61        -0.01360964
  62        -0.00000000
  63        -0.01699932
  64         0.46338794
  65        -0.13733143
  66        -0.04379099
  67         0.06855743
  68         0.00000000
  69         0.01581710
  70         0.00861812
  71        -0.00000000
  72        -0.01069579
  73        -0.00000000
  74         0.00000000
  75         0.01462575
  76         0.00048152
  77         0.14605797
  78        -0.05845533
  79        -0.00149315
  80         0.01360963
  81        -0.00000000
  82        -0.01342091
  83         0.35502866
  84        -0.09064678
  85        -0.02572895
  86        -0.05772636
  87         0.00000000
  88         0.02545274
  89        -0.00399221
  90         0.00000000
  91        -0.00968296
  92        -0.00000000
  93         0.00000000
  94         0.01169331
  95         0.00339895
  96         0.11147203
  97        -0.04554829
  98         0.00034778
  99        -0.01041009
 100        -0.00000000
 101        -0.00819096
 102         0.20982009
 103        -0.08357882
 104        -0.07458250
 105         0.02349608
 106        -0.00000000
 107         0.03757528
 108        -0.00539968
 109        -0.00000000