[Molden Format]
[N_Atoms]
                    3
[Atoms] (AU)
C1          1      6          -1.03572109      2.72640237      0.00000000
H2          2      1          -0.17576343      0.95009760      0.00000000
H3          3      1           0.17132257      4.28775078      0.00000000
[5D]
[Charge] (Mulliken)
 -0.11757776430231992     
   5.8789141458562622E-002
   5.8788622843701677E-002
[GTO] (AU)
   1
   s   9
  6.665000000E+03  6.920001793E-04
  1.000000000E+03  5.329001381E-03
  2.280000000E+02  2.707700701E-02
  6.471000000E+01  1.017180264E-01
  2.106000000E+01  2.747400712E-01
  7.495000000E+00  4.485641162E-01
  2.797000000E+00  2.850740738E-01
  5.215000000E-01  1.520400394E-02
  1.596000000E-01 -3.191000827E-03
   s   9
  6.665000000E+03 -1.460000642E-04
  1.000000000E+03 -1.154000508E-03
  2.280000000E+02 -5.725002519E-03
  6.471000000E+01 -2.331201026E-02
  2.106000000E+01 -6.395502813E-02
  7.495000000E+00 -1.499810660E-01
  2.797000000E+00 -1.272620560E-01
  5.215000000E-01  5.445292395E-01
  1.596000000E-01  5.804962554E-01
   s   1
  1.596000000E-01  1.000000000E+00
   p   4
  9.439000000E+00  3.810902127E-02
  2.002000000E+00  2.094801169E-01
  5.456000000E-01  5.085572839E-01
  1.517000000E-01  4.688422617E-01
   p   1
  1.517000000E-01  1.000000000E+00
   d   1
  5.500000000E-01  1.000000000E+00
 
   2
   s   4
  1.301000000E+01  1.968498999E-02
  1.962000000E+00  1.379769298E-01
  4.446000000E-01  4.781477569E-01
  1.220000000E-01  5.012397451E-01
   s   1
  1.220000000E-01  1.000000000E+00
   p   1
  7.270000000E-01  1.000000000E+00
 
   3
   s   4
  1.301000000E+01  1.968498999E-02
  1.962000000E+00  1.379769298E-01
  4.446000000E-01  4.781477569E-01
  1.220000000E-01  5.012397451E-01
   s   1
  1.220000000E-01  1.000000000E+00
   p   1
  7.270000000E-01  1.000000000E+00
 
[MO]
Sym=     1a' 
Ene=   -11.2730
Spin= Alpha
Occup=    2.00000
   1         1.00127806
   2         0.00678646
   3        -0.00627526
   4         0.00441200
   5        -0.00045880
   6         0.00000000
   7        -0.00337335
   8         0.00035079
   9         0.00000000
  10        -0.00138799
  11         0.00000000
  12         0.00000000
  13        -0.00053054
  14         0.00011155
  15        -0.00199384
  16         0.00254069
  17         0.00053542
  18        -0.00090777
  19         0.00000000
  20        -0.00199387
  21         0.00254072
  22         0.00071074
  23         0.00077818
  24         0.00000000
Sym=     2a' 
Ene=    -0.8999
Spin= Alpha
Occup=    2.00000
   1        -0.02097284
   2         0.77067492
   3        -0.15233082
   4         0.17318554
   5        -0.01800832
   6         0.00000000
   7        -0.06286090
   8         0.00653630
   9         0.00000000
  10        -0.00915480
  11         0.00000000
  12         0.00000000
  13         0.00206229
  14        -0.00043347
  15         0.43715167
  16        -0.18299165
  17        -0.01032606
  18         0.03090535
  19         0.00000000
  20         0.43715507
  21        -0.18299311
  22        -0.01646426
  23        -0.02811945
  24         0.00000000
Sym=     3a' 
Ene=    -0.6046
Spin= Alpha
Occup=    2.00000
   1        -0.00000002
   2        -0.00000164
   3        -0.00000075
   4         0.06871705
   5         0.66078839
   6         0.00000000
   7        -0.01610548
   8        -0.15486992
   9         0.00000000
  10         0.00000001
  11         0.00000000
  12         0.00000000
  13         0.00911120
  14         0.04333354
  15        -0.56181765
  16         0.16059116
  17         0.01378838
  18        -0.01339574
  19         0.00000000
  20         0.56181658
  21        -0.16059105
  22        -0.01624963
  23        -0.01027196
  24         0.00000000
Sym=     4a' 
Ene=    -0.3674
Spin= Alpha
Occup=    2.00000
   1         0.00145638
   2        -0.36998958
   3        -0.16524708
   4         0.77438996
   5        -0.08053032
   6         0.00000000
   7         0.05187735
   8        -0.00539487
   9         0.00000000
  10        -0.02236611
  11         0.00000000
  12         0.00000000
  13         0.02072122
  14        -0.00435675
  15         0.23239688
  16        -0.06328181
  17         0.01253762
  18         0.00937919
  19         0.00000000
  20         0.23239613
  21        -0.06328220
  22         0.01033956
  23        -0.01175818
  24         0.00000000
Sym=     5a' 
Ene=     0.2045
Spin= Alpha
Occup=    0.00000
   1         0.06567650
   2        -0.18585963
   3        -1.91043744
   4        -0.24765375
   5         0.02575541
   6         0.00000000
   7        -0.52829568
   8         0.05493954
   9         0.00000000
  10         0.02675780
  11         0.00000000
  12         0.00000000
  13         0.00790043
  14        -0.00166111
  15         0.02187994
  16         1.44242639
  17        -0.00961913
  18         0.02019593
  19         0.00000000
  20         0.02187927
  21         1.44242620
  22        -0.01356888
  23        -0.01778451
  24         0.00000000
Sym=     6a' 
Ene=     0.2662
Spin= Alpha
Occup=    0.00000
   1        -0.00000009
   2         0.00000024
   3         0.00000876
   4         0.04922597
   5         0.47336405
   6         0.00000000
   7         0.12139511
   8         1.16734059
   9         0.00000000
  10        -0.00000015
  11         0.00000000
  12         0.00000000
  13         0.01078847
  14         0.05131152
  15        -0.01381113
  16         1.98152614
  17        -0.00618821
  18         0.02732717
  19         0.00000000
  20         0.01381260
  21        -1.98153739
  22         0.01167864
  23         0.02546944
  24         0.00000000
Sym=     7a' 
Ene=     0.6208
Spin= Alpha
Occup=    0.00000
   1        -0.00000036
   2        -0.00000087
   3         0.00000957
   4        -0.04300401
   5        -0.41349948
   6         0.00000000
   7         0.18915708
   8         1.81889396
   9         0.00000000
  10        -0.00000031
  11         0.00000000
  12         0.00000000
  13        -0.02174076
  14        -0.10339953
  15         1.13219010
  16        -0.18393714
  17         0.04081343
  18         0.00880712
  19         0.00000000
  20        -1.13218972
  21         0.18392708
  22        -0.03812803
  23         0.01701635
  24         0.00000000
Sym=     8a' 
Ene=     0.6672
Spin= Alpha
Occup=    0.00000
   1         0.07696629
   2         0.03261429
   3        -0.95878293
   4         0.84473412
   5        -0.08784479
   6         0.00000000
   7        -1.60082083
   8         0.16646979
   9         0.00000000
  10        -0.10133229
  11         0.00000000
  12         0.00000000
  13        -0.09651589
  14         0.02029241
  15         1.05420584
  16        -0.37187466
  17         0.00008626
  18        -0.03793144
  19         0.00000000
  20         1.05419870
  21        -0.37186048
  22         0.00788927
  23         0.03710183
  24         0.00000000
Sym=     9a' 
Ene=     0.7617
Spin= Alpha
Occup=    0.00000
   1        -0.17598477
   2        -0.68113542
   3         0.70489627
   4         1.10453412
   5        -0.11486892
   6         0.00000000
   7        -1.09656586
   8         0.11404902
   9         0.00000000
  10         0.17652651
  11         0.00000000
  12         0.00000000
  13         0.16699754
  14        -0.03511190
  15        -0.82113234
  16         0.75799461
  17         0.02157721
  18         0.17858699
  19         0.00000000
  20        -0.82113001
  21         0.75797458
  22        -0.01562943
  23        -0.17920463
  24         0.00000000
Sym=    10a' 
Ene=     0.9139
Spin= Alpha
Occup=    0.00000
   1         0.00000548
   2         0.00002366
   3        -0.00003268
   4        -0.12645386
   5        -1.21598323
   6         0.00000000
   7         0.22866286
   8         2.19887718
   9         0.00000000
  10        -0.00000104
  11         0.00000000
  12         0.00000000
  13         0.07234396
  14         0.34407872
  15        -0.55698677
  16         1.78300132
  17        -0.16048145
  18         0.21189110
  19         0.00000000
  20         0.55699277
  21        -1.78299461
  22         0.20064474
  23         0.17433773
  24         0.00000000
Sym=    11a' 
Ene=     1.0272
Spin= Alpha
Occup=    0.00000
   1         0.74870785
   2         3.49065540
   3        -5.66597194
   4         0.14291094
   5        -0.01485662
   6         0.00000000
   7        -0.79937771
   8         0.08311606
   9         0.00000000
  10         0.10132180
  11         0.00000000
  12         0.00000000
  13         0.06527804
  14        -0.01372812
  15        -0.01471195
  16         1.30826048
  17        -0.14035731
  18         0.18774021
  19         0.00000000
  20        -0.01471691
  21         1.30828624
  22        -0.17598607
  23        -0.15484569
  24         0.00000000
Sym=    12a' 
Ene=     1.2885
Spin= Alpha
Occup=    0.00000
   1         0.12805643
   2         0.52066463
   3        -0.87796203
   4        -0.22234208
   5         0.02312162
   6         0.00000000
   7        -0.16514043
   8         0.01717244
   9         0.00000000
  10        -0.48318116
  11         0.00000000
  12         0.00000000
  13         0.52955181
  14        -0.11134222
  15         0.26526209
  16         0.00318834
  17         0.29280967
  18         0.09338426
  19         0.00000000
  20         0.26526298
  21         0.00318953
  22         0.26732904
  23        -0.15163355
  24         0.00000000
Sym=    13a' 
Ene=     1.7018
Spin= Alpha
Occup=    0.00000
   1        -0.00000150
   2        -0.00000665
   3         0.00000824
   4        -0.00592364
   5        -0.05697659
   6         0.00000000
   7        -0.07586286
   8        -0.72952064
   9         0.00000000
  10        -0.00000446
  11         0.00000000
  12         0.00000000
  13        -0.03749943
  14        -0.17834190
  15        -0.62467448
  16         0.10322328
  17         0.56039704
  18         0.45045623
  19         0.00000000
  20         0.62466439
  21        -0.10321825
  22        -0.45572333
  23         0.55612334
  24         0.00000000
Sym=    14a' 
Ene=     1.7830
Spin= Alpha
Occup=    0.00000
   1         0.31406204
   2         1.18757196
   3        -2.13720000
   4        -0.07169767
   5         0.00745294
   6         0.00000000
   7        -0.60354538
   8         0.06276090
   9         0.00000000
  10         0.92724108
  11         0.00000000
  12         0.00000000
  13         0.24967834
  14        -0.05249450
  15         1.17943632
  16        -0.34242184
  17         0.29086912
  18        -0.08969400
  19         0.00000000
  20         1.17943939
  21        -0.34241666
  22         0.30309268
  23         0.02793264
  24         0.00000000
Sym=    15a' 
Ene=     2.0529
Spin= Alpha
Occup=    0.00000
   1        -0.00000177
   2        -0.00000504
   3         0.00001251
   4        -0.03554228
   5        -0.34180268
   6         0.00000000
   7         0.06444138
   8         0.61965361
   9         0.00000000
  10        -0.00000454
  11         0.00000000
  12         0.00000000
  13         0.21215422
  14         1.00903290
  15         0.97504339
  16        -0.58379987
  17         0.47062388
  18        -0.13632291
  19         0.00000000
  20        -0.97505865
  21         0.58380348
  22        -0.48860545
  23        -0.03657219
  24         0.00000000
Sym=    16a' 
Ene=     2.3947
Spin= Alpha
Occup=    0.00000
   1        -0.07896751
   2        -0.35171550
   3        -0.13249095
   4        -0.53890205
   5         0.05604645
   6         0.00000000
   7        -0.12319836
   8         0.01281179
   9         0.00000000
  10         0.04685907
  11         0.00000000
  12         0.00000000
  13        -1.03882147
  14         0.21842059
  15         0.01918668
  16         0.21203400
  17         0.68604950
  18         0.59853505
  19         0.00000000
  20         0.01918143
  21         0.21203381
  22         0.54822196
  23        -0.72688903
  24         0.00000000
Sym=    17a' 
Ene=     2.8682
Spin= Alpha
Occup=    0.00000
   1        -0.00019250
   2        -0.00091430
   3        -0.00000826
   4         0.24654965
   5         2.37570216
   6         0.00000000
   7        -0.01059600
   8        -0.10280477
   9         0.00000000
  10         0.00027224
  11         0.00000000
  12         0.00000000
  13         0.27818526
  14         1.32161632
  15         2.41634924
  16        -0.58199679
  17        -0.45961012
  18         1.10152310
  19         0.00000000
  20        -2.41479343
  21         0.58154917
  22         0.67577374
  23         0.98280136
  24         0.00000000
Sym=    18a' 
Ene=     2.8799
Spin= Alpha
Occup=    0.00000
   1        -0.56042791
   2        -2.64161067
   3         0.00797386
   4        -1.42941994
   5         0.14778779
   6         0.00000000
   7         0.27272400
   8        -0.02831894
   9         0.00000000
  10         0.77040072
  11         0.00000000
  12         0.00000000
  13         0.82045154
  14        -0.17299408
  15         2.22562009
  16        -0.64594646
  17        -0.72604258
  18         1.00127143
  19         0.00000000
  20         2.22734779
  21        -0.64636705
  22        -0.91700948
  23        -0.83115523
  24         0.00000000
Sym=     1a" 
Ene=     0.0663
Spin= Alpha
Occup=    0.00000
   1         0.00000000
   2         0.00000000
   3         0.00000000
   4         0.00000000
   5         0.00000000
   6         0.64601367
   7         0.00000000
   8         0.00000000
   9         0.38577714
  10         0.00000000
  11         0.02906852
  12        -0.00302282
  13         0.00000000
  14         0.00000000
  15         0.00000000
  16         0.00000000
  17         0.00000000
  18         0.00000000
  19         0.01675844
  20         0.00000000
  21         0.00000000
  22         0.00000000
  23         0.00000000
  24         0.01675843
Sym=     2a" 
Ene=     0.7411
Spin= Alpha
Occup=    0.00000
   1         0.00000000
   2         0.00000000
   3         0.00000000
   4         0.00000000
   5         0.00000000
   6        -1.60231785
   7         0.00000000
   8         0.00000000
   9         1.73588376
  10         0.00000000
  11        -0.00900082
  12         0.00093611
  13         0.00000000
  14         0.00000000
  15         0.00000000
  16         0.00000000
  17         0.00000000
  18         0.00000000
  19        -0.07290907
  20         0.00000000
  21         0.00000000
  22         0.00000000
  23         0.00000000
  24        -0.07290992
Sym=     3a" 
Ene=     1.2044
Spin= Alpha
Occup=    0.00000
   1         0.00000000
   2         0.00000000
   3         0.00000000
   4         0.00000000
   5         0.00000000
   6        -0.00000127
   7         0.00000000
   8         0.00000000
   9         0.00000140
  10         0.00000000
  11         0.06417157
  12         0.61709460
  13         0.00000000
  14         0.00000000
  15         0.00000000
  16         0.00000000
  17         0.00000000
  18         0.00000000
  19        -0.35805826
  20         0.00000000
  21         0.00000000
  22         0.00000000
  23         0.00000000
  24         0.35805646
Sym=     4a" 
Ene=     1.3318
Spin= Alpha
Occup=    0.00000
   1         0.00000000
   2         0.00000000
   3         0.00000000
   4         0.00000000
   5         0.00000000
   6        -0.24661829
   7         0.00000000
   8         0.00000000
   9         0.02083148
  10         0.00000000
  11         0.79664678
  12        -0.08284371
  13         0.00000000
  14         0.00000000
  15         0.00000000
  16         0.00000000
  17         0.00000000
  18         0.00000000
  19         0.27871311
  20         0.00000000
  21         0.00000000
  22         0.00000000
  23         0.00000000
  24         0.27871382
Sym=     5a" 
Ene=     1.9938
Spin= Alpha
Occup=    0.00000
   1         0.00000000
   2         0.00000000
   3         0.00000000
   4         0.00000000
   5         0.00000000
   6        -0.40652453
   7         0.00000000
   8         0.00000000
   9        -0.13789711
  10         0.00000000
  11        -0.73450752
  12         0.07639012
  13         0.00000000
  14         0.00000000
  15         0.00000000
  16         0.00000000
  17         0.00000000
  18         0.00000000
  19         0.80648751
  20         0.00000000
  21         0.00000000
  22         0.00000000
  23         0.00000000
  24         0.80647675
Sym=     6a" 
Ene=     2.1224
Spin= Alpha
Occup=    0.00000
   1         0.00000000
   2         0.00000000
   3         0.00000000
   4         0.00000000
   5         0.00000000
   6         0.00000652
   7         0.00000000
   8         0.00000000
   9        -0.00000031
  10         0.00000000
  11         0.10989476
  12         1.05669703
  13         0.00000000
  14         0.00000000
  15         0.00000000
  16         0.00000000
  17         0.00000000
  18         0.00000000
  19         0.80089327
  20         0.00000000
  21         0.00000000
  22         0.00000000
  23         0.00000000
  24        -0.80090854
