[Molden Format]
[N_Atoms]
                    3
[Atoms] (AU)
C1          1      6          -1.03572109      2.72640237      0.00000000
H2          2      1          -0.17576343      0.95009760      0.00000000
H3          3      1           0.17132257      4.28775078      0.00000000
[5D]
[Charge] (Mulliken)
   0.0000000000000000     
   0.0000000000000000     
   0.0000000000000000     
[GTO] (AU)
   1
   s   9
  6.665000000E+03  6.920001793E-04
  1.000000000E+03  5.329001381E-03
  2.280000000E+02  2.707700701E-02
  6.471000000E+01  1.017180264E-01
  2.106000000E+01  2.747400712E-01
  7.495000000E+00  4.485641162E-01
  2.797000000E+00  2.850740738E-01
  5.215000000E-01  1.520400394E-02
  1.596000000E-01 -3.191000827E-03
   s   9
  6.665000000E+03 -1.460000642E-04
  1.000000000E+03 -1.154000508E-03
  2.280000000E+02 -5.725002519E-03
  6.471000000E+01 -2.331201026E-02
  2.106000000E+01 -6.395502813E-02
  7.495000000E+00 -1.499810660E-01
  2.797000000E+00 -1.272620560E-01
  5.215000000E-01  5.445292395E-01
  1.596000000E-01  5.804962554E-01
   s   1
  1.596000000E-01  1.000000000E+00
   p   4
  9.439000000E+00  3.810902127E-02
  2.002000000E+00  2.094801169E-01
  5.456000000E-01  5.085572839E-01
  1.517000000E-01  4.688422617E-01
   p   1
  1.517000000E-01  1.000000000E+00
   d   1
  5.500000000E-01  1.000000000E+00
 
   2
   s   4
  1.301000000E+01  1.968498999E-02
  1.962000000E+00  1.379769298E-01
  4.446000000E-01  4.781477569E-01
  1.220000000E-01  5.012397451E-01
   s   1
  1.220000000E-01  1.000000000E+00
   p   1
  7.270000000E-01  1.000000000E+00
 
   3
   s   4
  1.301000000E+01  1.968498999E-02
  1.962000000E+00  1.379769298E-01
  4.446000000E-01  4.781477569E-01
  1.220000000E-01  5.012397451E-01
   s   1
  1.220000000E-01  1.000000000E+00
   p   1
  7.270000000E-01  1.000000000E+00
 
[MO]
Sym=     1a' 
Ene=   -11.3350
Spin= Alpha
Occup=    2.00000
   1         0.99831834
   2        -0.00191675
   3         0.00523157
   4         0.00009053
   5        -0.00000941
   6         0.00000000
   7        -0.00000751
   8         0.00000078
   9         0.00000000
  10         0.00000000
  11         0.00000000
  12         0.00000000
  13         0.00000000
  14         0.00000000
  15         0.00456240
  16        -0.00066258
  17        -0.00000000
  18         0.00000000
  19         0.00000000
  20         0.00456243
  21        -0.00066258
  22         0.00000000
  23         0.00000000
  24         0.00000000
Sym=     2a' 
Ene=    -1.1533
Spin= Alpha
Occup=    2.00000
   1        -0.05173372
   2         0.60731160
   3        -0.05094524
   4         0.10904495
   5        -0.01133949
   6         0.00000000
   7        -0.00904184
   8         0.00094025
   9         0.00000000
  10         0.00000000
  11         0.00000000
  12         0.00000000
  13         0.00000000
  14         0.00000000
  15         0.36206351
  16        -0.05258104
  17        -0.00000000
  18         0.00000000
  19         0.00000000
  20         0.36206436
  21        -0.05258116
  22         0.00000000
  23         0.00000000
  24         0.00000000
Sym=     3a' 
Ene=    -0.6945
Spin= Alpha
Occup=    2.00000
   1        -0.00000012
   2        -0.00000025
   3         0.00000002
   4         0.06491143
   5         0.62420010
   6         0.00000000
   7        -0.00538236
   8        -0.05175772
   9         0.00000000
  10         0.00000000
  11         0.00000000
  12         0.00000000
  13         0.00000000
  14         0.00000000
  15        -0.46344018
  16         0.06730356
  17        -0.00000000
  18         0.00000000
  19         0.00000000
  20         0.46343887
  21        -0.06730337
  22        -0.00000000
  23        -0.00000000
  24         0.00000000
Sym=     4a' 
Ene=    -0.4728
Spin= Alpha
Occup=    2.00000
   1        -0.03155851
   2        -0.51779287
   3         0.04305143
   4         0.92080210
   5        -0.09575533
   6         0.00000000
   7        -0.07635150
   8         0.00793989
   9         0.00000000
  10        -0.00000000
  11         0.00000000
  12         0.00000000
  13         0.00000000
  14         0.00000000
  15         0.16008510
  16        -0.02324852
  17        -0.00000000
  18         0.00000000
  19         0.00000000
  20         0.16008507
  21        -0.02324851
  22         0.00000000
  23         0.00000000
  24         0.00000000
Sym=     5a' 
Ene=    -0.1242
Spin= Alpha
Occup=    0.00000
   1        -0.19268398
   2        -1.49411232
   3         0.12371039
   4        -0.80332568
   5         0.08380743
   6         0.00000000
   7         0.06661054
   8        -0.00694918
   9         0.00000000
  10        -0.00000000
  11         0.00000000
  12         0.00000000
  13        -0.00000000
  14        -0.00000000
  15         1.15541897
  16        -0.16779688
  17         0.00000000
  18        -0.00000000
  19         0.00000000
  20         1.15494545
  21        -0.16772811
  22         0.00000000
  23         0.00000000
  24         0.00000000
Sym=     6a' 
Ene=    -0.1221
Spin= Alpha
Occup=    0.00000
   1         0.00003879
   2         0.00029769
   3        -0.00002465
   4         0.14103679
   5         1.35468429
   6         0.00000000
   7        -0.01169455
   8        -0.11232835
   9         0.00000000
  10         0.00000000
  11         0.00000000
  12         0.00000000
  13        -0.00000000
  14        -0.00000000
  15         1.21408961
  16        -0.17631738
  17         0.00000000
  18        -0.00000000
  19         0.00000000
  20        -1.21454809
  21         0.17638396
  22        -0.00000000
  23        -0.00000000
  24         0.00000000
Sym=     7a' 
Ene=     3.7174
Spin= Alpha
Occup=    0.00000
   1        -0.00000267
   2        -0.00000942
   3         0.00004999
   4        -0.01032418
   5        -0.09927605
   6         0.00000000
   7         0.19688350
   8         1.89313814
   9         0.00000000
  10        -0.00000305
  11         0.00000000
  12         0.00000000
  13         0.07039685
  14         0.33482269
  15        -0.43421273
  16         2.62689316
  17        -0.14772967
  18         0.24343644
  19         0.00000000
  20         0.43421970
  21        -2.62694859
  22         0.19466190
  23         0.20783797
  24         0.00000000
Sym=     8a' 
Ene=     3.7498
Spin= Alpha
Occup=    0.00000
   1         0.25157836
   2         0.89957742
   3        -3.42779378
   4         0.07968857
   5        -0.00828950
   6         0.00000000
   7        -0.90851722
   8         0.09450191
   9         0.00000000
  10         0.22502244
  11         0.00000000
  12         0.00000000
  13         0.15042748
  14        -0.03162432
  15        -0.48166042
  16         2.04709730
  17        -0.09165779
  18         0.28152628
  19         0.00000000
  20        -0.48164485
  21         2.04703381
  22        -0.14761851
  23        -0.25663814
  24         0.00000000
Sym=     9a' 
Ene=     4.2917
Spin= Alpha
Occup=    0.00000
   1         0.00000102
   2         0.00000378
   3         0.00000227
   4        -0.06398161
   5        -0.61525327
   6         0.00000000
   7         0.24935097
   8         2.39777035
   9         0.00000000
  10        -0.00000082
  11         0.00000000
  12         0.00000000
  13         0.05307869
  14         0.25244933
  15         1.27021700
  16         0.16666420
  17        -0.11517133
  18         0.21336910
  19         0.00000000
  20        -1.27022241
  21        -0.16666527
  22         0.15660928
  23         0.18510519
  24         0.00000000
Sym=    10a' 
Ene=     4.4511
Spin= Alpha
Occup=    0.00000
   1         0.19048761
   2         0.70842612
   3        -2.26466561
   4         0.86368633
   5        -0.08981773
   6         0.00000000
   7        -1.94788991
   8         0.20256560
   9         0.00000000
  10         0.04850484
  11         0.00000000
  12         0.00000000
  13         0.04174062
  14        -0.00877728
  15         1.08525271
  16         0.00465425
  17         0.03448535
  18         0.21639109
  19         0.00000000
  20         1.08525449
  21         0.00465574
  22        -0.01077467
  23        -0.21885659
  24         0.00000000
Sym=    11a' 
Ene=     4.7127
Spin= Alpha
Occup=    0.00000
   1         0.38840430
   2         1.80046158
   3        -2.85756099
   4        -0.21522307
   5         0.02238197
   6         0.00000000
   7         0.11007357
   8        -0.01144872
   9         0.00000000
  10         0.24710689
  11         0.00000000
  12         0.00000000
  13        -0.25736178
  14         0.05411223
  15         0.36867485
  16         0.26155566
  17        -0.41040522
  18        -0.05527167
  19         0.00000000
  20         0.36867565
  21         0.26155900
  22        -0.39024896
  23         0.13853377
  24         0.00000000
Sym=    12a' 
Ene=     4.8876
Spin= Alpha
Occup=    0.00000
   1         0.49332637
   2         2.26926329
   3        -3.23548034
   4        -0.51097192
   5         0.05313853
   6         0.00000000
   7         0.25161945
   8        -0.02617199
   9         0.00000000
  10        -0.48238801
  11         0.00000000
  12         0.00000000
  13         0.41485508
  14        -0.08722643
  15         0.29835246
  16         0.29399042
  17         0.06148313
  18         0.04586041
  19         0.00000000
  20         0.29835483
  21         0.29399555
  22         0.05072836
  23        -0.05752468
  24         0.00000000
Sym=    13a' 
Ene=     5.1044
Spin= Alpha
Occup=    0.00000
   1        -0.00000063
   2        -0.00000390
   3         0.00000217
   4         0.00316430
   5         0.03039902
   6         0.00000000
   7        -0.05429002
   8        -0.52202456
   9         0.00000000
  10         0.00000282
  11         0.00000000
  12         0.00000000
  13         0.00842021
  14         0.04005570
  15        -0.20605031
  16        -0.05922171
  17         0.62326399
  18         0.45482346
  19         0.00000000
  20         0.20605263
  21         0.05922152
  22        -0.51634402
  23         0.57333237
  24         0.00000000
Sym=    14a' 
Ene=     5.3537
Spin= Alpha
Occup=    0.00000
   1         0.41963697
   2         1.71600128
   3        -2.60957697
   4        -0.13916397
   5         0.01447100
   6         0.00000000
   7        -0.45278268
   8         0.04708726
   9         0.00000000
  10         0.87097814
  11         0.00000000
  12         0.00000000
  13         0.16080393
  14        -0.03380705
  15         0.99672831
  16        -0.22710831
  17         0.35103873
  18        -0.09753919
  19         0.00000000
  20         0.99672166
  21        -0.22710168
  22         0.36359666
  23         0.02322300
  24         0.00000000
Sym=    15a' 
Ene=     5.6343
Spin= Alpha
Occup=    0.00000
   1        -0.00000137
   2        -0.00000373
   3         0.00000690
   4        -0.02511600
   5        -0.24153437
   6         0.00000000
   7         0.07316779
   8         0.70358389
   9         0.00000000
  10        -0.00000362
  11         0.00000000
  12         0.00000000
  13         0.22677781
  14         1.07857957
  15         1.04042707
  16        -0.53423531
  17         0.34343102
  18        -0.17446783
  19         0.00000000
  20        -1.04043504
  21         0.53423766
  22        -0.37198425
  23        -0.10007312
  24         0.00000000
Sym=    16a' 
Ene=     5.8954
Spin= Alpha
Occup=    0.00000
   1         0.06203904
   2         0.35334200
   3        -0.30430421
   4        -0.38889937
   5         0.04044440
   6         0.00000000
   7         0.06323935
   8        -0.00657829
   9         0.00000000
  10        -0.16502136
  11         0.00000000
  12         0.00000000
  13        -1.20344454
  14         0.25303060
  15        -0.46776698
  16         0.35383509
  17         0.75070084
  18         0.39444885
  19         0.00000000
  20        -0.46776381
  21         0.35383428
  22         0.65347993
  23        -0.54047640
  24         0.00000000
Sym=    17a' 
Ene=     7.0949
Spin= Alpha
Occup=    0.00000
   1        -0.57352488
   2        -2.56070080
   3         0.37552638
   4        -1.51575599
   5         0.15767313
   6         0.00000000
   7         0.50641706
   8        -0.05267310
   9         0.00000000
  10         0.78062045
  11         0.00000000
  12         0.00000000
  13         0.63272414
  14        -0.13300457
  15         2.02792061
  16        -0.75411278
  17        -0.56598019
  18         1.07334765
  19         0.00000000
  20         2.02783876
  21        -0.75408549
  22        -0.77468976
  23        -0.93388381
  24         0.00000000
Sym=    18a' 
Ene=     7.4330
Spin= Alpha
Occup=    0.00000
   1         0.00001840
   2         0.00007652
   3        -0.00001606
   4         0.24173288
   5         2.32413154
   6         0.00000000
   7        -0.06071630
   8        -0.58371630
   9         0.00000000
  10        -0.00001912
  11         0.00000000
  12         0.00000000
  13         0.26507623
  14         1.26079775
  15         2.11359759
  16        -0.77591113
  17        -0.48236935
  18         1.06668824
  19         0.00000000
  20        -2.11371385
  21         0.77595692
  22         0.69156686
  23         0.94465861
  24         0.00000000
Sym=     1a" 
Ene=    -0.4352
Spin= Alpha
Occup=    0.00000
   1         0.00000000
   2         0.00000000
   3         0.00000000
   4         0.00000000
   5         0.00000000
   6         1.07195567
   7         0.00000000
   8         0.00000000
   9        -0.08888492
  10         0.00000000
  11        -0.00000000
  12        -0.00000000
  13         0.00000000
  14         0.00000000
  15         0.00000000
  16         0.00000000
  17         0.00000000
  18         0.00000000
  19        -0.00000000
  20         0.00000000
  21         0.00000000
  22         0.00000000
  23         0.00000000
  24        -0.00000000
Sym=     2a" 
Ene=     4.5610
Spin= Alpha
Occup=    0.00000
   1         0.00000000
   2         0.00000000
   3         0.00000000
   4         0.00000000
   5         0.00000000
   6         1.11367966
   7         0.00000000
   8         0.00000000
   9        -1.66445304
  10         0.00000000
  11         0.06309911
  12        -0.00656289
  13         0.00000000
  14         0.00000000
  15         0.00000000
  16         0.00000000
  17         0.00000000
  18         0.00000000
  19         0.34361970
  20         0.00000000
  21         0.00000000
  22         0.00000000
  23         0.00000000
  24         0.34362244
Sym=     3a" 
Ene=     4.7226
Spin= Alpha
Occup=    0.00000
   1         0.00000000
   2         0.00000000
   3         0.00000000
   4         0.00000000
   5         0.00000000
   6         0.00000101
   7         0.00000000
   8         0.00000000
   9        -0.00000062
  10         0.00000000
  11         0.05329191
  12         0.51249332
  13         0.00000000
  14         0.00000000
  15         0.00000000
  16         0.00000000
  17         0.00000000
  18         0.00000000
  19        -0.43350384
  20         0.00000000
  21         0.00000000
  22         0.00000000
  23         0.00000000
  24         0.43349971
Sym=     4a" 
Ene=     4.8741
Spin= Alpha
Occup=    0.00000
   1         0.00000000
   2         0.00000000
   3         0.00000000
   4         0.00000000
   5         0.00000000
   6        -0.54867836
   7         0.00000000
   8         0.00000000
   9         0.54770799
  10         0.00000000
  11         0.81599598
  12        -0.08485346
  13         0.00000000
  14         0.00000000
  15         0.00000000
  16         0.00000000
  17         0.00000000
  18         0.00000000
  19         0.18515279
  20         0.00000000
  21         0.00000000
  22         0.00000000
  23         0.00000000
  24         0.18515484
Sym=     5a" 
Ene=     5.5077
Spin= Alpha
Occup=    0.00000
   1         0.00000000
   2         0.00000000
   3         0.00000000
   4         0.00000000
   5         0.00000000
   6        -0.72140117
   7         0.00000000
   8         0.00000000
   9         0.32136818
  10         0.00000000
  11        -0.71080117
  12         0.07395601
  13         0.00000000
  14         0.00000000
  15         0.00000000
  16         0.00000000
  17         0.00000000
  18         0.00000000
  19         0.76247782
  20         0.00000000
  21         0.00000000
  22         0.00000000
  23         0.00000000
  24         0.76242727
Sym=     6a" 
Ene=     5.5515
Spin= Alpha
Occup=    0.00000
   1         0.00000000
   2         0.00000000
   3         0.00000000
   4         0.00000000
   5         0.00000000
   6         0.00002954
   7         0.00000000
   8         0.00000000
   9        -0.00001425
  10         0.00000000
  11         0.11558092
  12         1.11119793
  13         0.00000000
  14         0.00000000
  15         0.00000000
  16         0.00000000
  17         0.00000000
  18         0.00000000
  19         0.76268039
  20         0.00000000
  21         0.00000000
  22         0.00000000
  23         0.00000000
  24        -0.76273568
