[Molden Format]
[N_Atoms]
                    6
[Atoms] (AU)
C1          1      6          -1.64954193      2.98674993      0.00000000
C2          2      6          -1.03572109      2.72640237      0.00000000
H3          3      1          -4.74631172      1.42540152      0.00000000
H4          4      1          -4.39922573      4.76305470      0.00000000
H5          5      1          -0.17576343      0.95009760      0.00000000
H6          6      1           0.17132257      4.28775078      0.00000000
[5D]
[Charge] (Mulliken)
   0.0000000000000000     
   0.0000000000000000     
   0.0000000000000000     
   0.0000000000000000     
   0.0000000000000000     
   0.0000000000000000     
[GTO] (AU)
   1
   s   9
  6.665000000E+03  6.920001793E-04
  1.000000000E+03  5.329001381E-03
  2.280000000E+02  2.707700701E-02
  6.471000000E+01  1.017180264E-01
  2.106000000E+01  2.747400712E-01
  7.495000000E+00  4.485641162E-01
  2.797000000E+00  2.850740738E-01
  5.215000000E-01  1.520400394E-02
  1.596000000E-01 -3.191000827E-03
   s   9
  6.665000000E+03 -1.460000642E-04
  1.000000000E+03 -1.154000508E-03
  2.280000000E+02 -5.725002519E-03
  6.471000000E+01 -2.331201026E-02
  2.106000000E+01 -6.395502813E-02
  7.495000000E+00 -1.499810660E-01
  2.797000000E+00 -1.272620560E-01
  5.215000000E-01  5.445292395E-01
  1.596000000E-01  5.804962554E-01
   s   1
  1.596000000E-01  1.000000000E+00
   p   4
  9.439000000E+00  3.810902127E-02
  2.002000000E+00  2.094801169E-01
  5.456000000E-01  5.085572839E-01
  1.517000000E-01  4.688422617E-01
   p   1
  1.517000000E-01  1.000000000E+00
   d   1
  5.500000000E-01  1.000000000E+00
 
   2
   s   9
  6.665000000E+03  6.920001793E-04
  1.000000000E+03  5.329001381E-03
  2.280000000E+02  2.707700701E-02
  6.471000000E+01  1.017180264E-01
  2.106000000E+01  2.747400712E-01
  7.495000000E+00  4.485641162E-01
  2.797000000E+00  2.850740738E-01
  5.215000000E-01  1.520400394E-02
  1.596000000E-01 -3.191000827E-03
   s   9
  6.665000000E+03 -1.460000642E-04
  1.000000000E+03 -1.154000508E-03
  2.280000000E+02 -5.725002519E-03
  6.471000000E+01 -2.331201026E-02
  2.106000000E+01 -6.395502813E-02
  7.495000000E+00 -1.499810660E-01
  2.797000000E+00 -1.272620560E-01
  5.215000000E-01  5.445292395E-01
  1.596000000E-01  5.804962554E-01
   s   1
  1.596000000E-01  1.000000000E+00
   p   4
  9.439000000E+00  3.810902127E-02
  2.002000000E+00  2.094801169E-01
  5.456000000E-01  5.085572839E-01
  1.517000000E-01  4.688422617E-01
   p   1
  1.517000000E-01  1.000000000E+00
   d   1
  5.500000000E-01  1.000000000E+00
 
   3
   s   4
  1.301000000E+01  1.968498999E-02
  1.962000000E+00  1.379769298E-01
  4.446000000E-01  4.781477569E-01
  1.220000000E-01  5.012397451E-01
   s   1
  1.220000000E-01  1.000000000E+00
   p   1
  7.270000000E-01  1.000000000E+00
 
   4
   s   4
  1.301000000E+01  1.968498999E-02
  1.962000000E+00  1.379769298E-01
  4.446000000E-01  4.781477569E-01
  1.220000000E-01  5.012397451E-01
   s   1
  1.220000000E-01  1.000000000E+00
   p   1
  7.270000000E-01  1.000000000E+00
 
   5
   s   4
  1.301000000E+01  1.968498999E-02
  1.962000000E+00  1.379769298E-01
  4.446000000E-01  4.781477569E-01
  1.220000000E-01  5.012397451E-01
   s   1
  1.220000000E-01  1.000000000E+00
   p   1
  7.270000000E-01  1.000000000E+00
 
   6
   s   4
  1.301000000E+01  1.968498999E-02
  1.962000000E+00  1.379769298E-01
  4.446000000E-01  4.781477569E-01
  1.220000000E-01  5.012397451E-01
   s   1
  1.220000000E-01  1.000000000E+00
   p   1
  7.270000000E-01  1.000000000E+00
 
[MO]
Sym=     1a' 
Ene=   -14.0080
Spin= Alpha
Occup=    2.00000
   1         0.63330427
   2         0.00658746
   3         0.00266753
   4         0.00646283
   5        -0.00271537
   6         0.00000000
   7        -0.00053589
   8         0.00022515
   9         0.00000000
  10         0.00000000
  11         0.00000000
  12         0.00000000
  13         0.00000000
  14        -0.00000000
  15         0.63378426
  16         0.00661777
  17         0.00266744
  18        -0.00633220
  19         0.00271111
  20         0.00000000
  21         0.00052506
  22        -0.00022480
  23         0.00000000
  24        -0.00000000
  25         0.00000000
  26         0.00000000
  27        -0.00000000
  28         0.00000000
  29         0.00092607
  30        -0.00013449
  31         0.00000000
  32        -0.00000000
  33         0.00000000
  34         0.00102074
  35        -0.00014824
  36         0.00000000
  37        -0.00000000
  38         0.00000000
  39         0.00393239
  40        -0.00057109
  41         0.00000000
  42        -0.00000000
  43         0.00000000
  44         0.00442946
  45        -0.00064327
  46        -0.00000000
  47         0.00000000
  48         0.00000000
Sym=     2a' 
Ene=    -8.8213
Spin= Alpha
Occup=    2.00000
   1        -0.79611714
   2         0.01564548
   3        -0.00535007
   4         0.01359315
   5        -0.00576133
   6         0.00000000
   7        -0.00112712
   8         0.00047772
   9         0.00000000
  10         0.00000000
  11         0.00000000
  12         0.00000000
  13         0.00000000
  14        -0.00000000
  15         0.79499783
  16        -0.01535361
  17         0.00532002
  18         0.01359361
  19        -0.00577090
  20         0.00000000
  21        -0.00112716
  22         0.00047851
  23         0.00000000
  24        -0.00000000
  25         0.00000000
  26         0.00000000
  27        -0.00000000
  28         0.00000000
  29        -0.00062693
  30         0.00009105
  31         0.00000000
  32        -0.00000000
  33         0.00000000
  34        -0.00097944
  35         0.00014224
  36         0.00000000
  37         0.00000000
  38         0.00000000
  39         0.00265466
  40        -0.00038553
  41         0.00000000
  42        -0.00000000
  43         0.00000000
  44         0.00147109
  45        -0.00021364
  46        -0.00000000
  47         0.00000000
  48         0.00000000
Sym=     3a' 
Ene=    -1.7011
Spin= Alpha
Occup=    2.00000
   1        -0.07736575
   2         0.40338734
   3        -0.03405721
   4         0.05376596
   5        -0.00713822
   6         0.00000000
   7        -0.00445819
   8         0.00059189
   9         0.00000000
  10         0.00000000
  11         0.00000000
  12         0.00000000
  13         0.00000000
  14        -0.00000000
  15        -0.11792040
  16         0.42787942
  17        -0.03630719
  18         0.01962154
  19         0.00730281
  20         0.00000000
  21        -0.00162699
  22        -0.00060554
  23         0.00000000
  24        -0.00000000
  25         0.00000000
  26         0.00000000
  27        -0.00000000
  28         0.00000000
  29         0.08088103
  30        -0.01174603
  31         0.00000000
  32        -0.00000000
  33         0.00000000
  34         0.08600626
  35        -0.01249034
  36         0.00000000
  37         0.00000000
  38         0.00000000
  39         0.20795111
  40        -0.03019991
  41         0.00000000
  42         0.00000000
  43         0.00000000
  44         0.22341416
  45        -0.03244554
  46        -0.00000000
  47         0.00000000
  48         0.00000000
Sym=     4a' 
Ene=    -1.0382
Spin= Alpha
Occup=    2.00000
   1         0.00129265
   2        -0.03557842
   3         0.00297572
   4         0.17179378
   5         0.37782196
   6         0.00000000
   7        -0.01424488
   8        -0.03132842
   9         0.00000000
  10        -0.00000000
  11         0.00000000
  12         0.00000000
  13        -0.00000000
  14         0.00000000
  15        -0.00130103
  16        -0.03233001
  17         0.00269145
  18         0.16751875
  19         0.39572025
  20         0.00000000
  21        -0.01389040
  22        -0.03281252
  23         0.00000000
  24         0.00000000
  25         0.00000000
  26         0.00000000
  27         0.00000000
  28        -0.00000000
  29        -0.17551589
  30         0.02548947
  31        -0.00000000
  32         0.00000000
  33         0.00000000
  34        -0.00195726
  35         0.00028424
  36         0.00000000
  37        -0.00000000
  38         0.00000000
  39        -0.21656426
  40         0.03145076
  41        -0.00000000
  42        -0.00000000
  43         0.00000000
  44         0.29103980
  45        -0.04226655
  46         0.00000000
  47        -0.00000000
  48         0.00000000
Sym=     5a' 
Ene=    -0.9659
Spin= Alpha
Occup=    2.00000
   1        -0.14627478
   2         0.21856387
   3        -0.01898307
   4        -0.35425396
   5         0.16358740
   6         0.00000000
   7         0.02937420
   8        -0.01356442
   9         0.00000000
  10         0.00000000
  11         0.00000000
  12         0.00000000
  13         0.00000000
  14        -0.00000000
  15         0.14099245
  16        -0.04759082
  17         0.00468789
  18        -0.34751177
  19         0.17545092
  20         0.00000000
  21         0.02881514
  22        -0.01454812
  23         0.00000000
  24        -0.00000000
  25         0.00000000
  26         0.00000000
  27        -0.00000000
  28         0.00000000
  29         0.24697951
  30        -0.03586785
  31         0.00000000
  32        -0.00000000
  33         0.00000000
  34         0.33299592
  35        -0.04835967
  36         0.00000000
  37         0.00000000
  38         0.00000000
  39        -0.24992083
  40         0.03629500
  41         0.00000000
  42        -0.00000000
  43         0.00000000
  44        -0.07272687
  45         0.01056183
  46        -0.00000000
  47         0.00000000
  48         0.00000000
Sym=     6a' 
Ene=    -0.4366
Spin= Alpha
Occup=    2.00000
   1         0.12955060
   2        -0.42626352
   3         0.03623142
   4         0.17314525
   5         0.01875951
   6         0.00000000
   7        -0.01435694
   8        -0.00155551
   9         0.00000000
  10        -0.00000000
  11         0.00000000
  12         0.00000000
  13        -0.00000000
  14         0.00000000
  15        -0.04215020
  16        -0.22841424
  17         0.01884789
  18         0.41057578
  19        -0.04780111
  20         0.00000000
  21        -0.03404432
  22         0.00396359
  23         0.00000000
  24         0.00000000
  25         0.00000000
  26         0.00000000
  27         0.00000000
  28        -0.00000000
  29         0.76315005
  30        -0.11082923
  31        -0.00000000
  32         0.00000000
  33         0.00000000
  34         0.64200631
  35        -0.09323601
  36        -0.00000000
  37        -0.00000000
  38         0.00000000
  39         0.19440774
  40        -0.02823306
  41        -0.00000000
  42         0.00000000
  43         0.00000000
  44         0.15540348
  45        -0.02256863
  46         0.00000000
  47        -0.00000000
  48         0.00000000
Sym=     7a' 
Ene=    -0.3715
Spin= Alpha
Occup=    2.00000
   1         0.02822091
   2        -0.04430988
   3         0.00384119
   4        -0.03071800
   5         0.06165562
   6         0.00000000
   7         0.00254709
   8        -0.00511239
   9         0.00000000
  10         0.00000000
  11         0.00000000
  12         0.00000000
  13         0.00000000
  14        -0.00000000
  15         0.01027122
  16        -0.02143216
  17         0.00184077
  18         0.05116541
  19        -0.14540459
  20         0.00000000
  21        -0.00424256
  22         0.01205673
  23         0.00000000
  24        -0.00000000
  25         0.00000000
  26         0.00000000
  27        -0.00000000
  28        -0.00000000
  29        -0.87640068
  30         0.12727617
  31         0.00000000
  32         0.00000000
  33         0.00000000
  34         0.92490534
  35        -0.13432030
  36         0.00000000
  37        -0.00000000
  38         0.00000000
  39         0.27419745
  40        -0.03982060
  41         0.00000000
  42         0.00000000
  43         0.00000000
  44        -0.18443094
  45         0.02678417
  46        -0.00000000
  47        -0.00000000
  48         0.00000000
Sym=     8a' 
Ene=    -0.1946
Spin= Alpha
Occup=    0.00000
   1        -0.03231926
   2        -0.00225676
   3         0.00002415
   4        -0.24629099
   5         0.85265207
   6         0.00000000
   7         0.02042207
   8        -0.07070060
   9         0.00000000
  10         0.00000000
  11         0.00000000
  12         0.00000000
  13         0.00000000
  14        -0.00000000
  15         0.13154006
  16        -0.21953494
  17         0.01898925
  18        -0.00844727
  19         0.23136734
  20         0.00000000
  21         0.00070043
  22        -0.01918463
  23         0.00000000
  24        -0.00000000
  25         0.00000000
  26         0.00000000
  27        -0.00000000
  28         0.00000000
  29         0.15998520
  30        -0.02323401
  31         0.00000000
  32        -0.00000000
  33         0.00000000
  34        -0.39784512
  35         0.05777746
  36         0.00000000
  37         0.00000000
  38         0.00000000
  39         1.27768961
  40        -0.18555375
  41         0.00000000
  42         0.00000000
  43         0.00000000
  44        -0.64894469
  45         0.09424364
  46        -0.00000000
  47         0.00000000
  48         0.00000000
Sym=     9a' 
Ene=    -0.1627
Spin= Alpha
Occup=    0.00000
   1        -0.06759499
   2        -0.40689081
   3         0.03361317
   4        -0.77864159
   5        -0.12280822
   6         0.00000000
   7         0.06456377
   8         0.01018307
   9         0.00000000
  10        -0.00000000
  11         0.00000000
  12         0.00000000
  13         0.00000000
  14         0.00000000
  15         0.13535609
  16        -0.66421725
  17         0.05611904
  18        -0.25147359
  19        -0.16053174
  20         0.00000000
  21         0.02085181
  22         0.01331105
  23         0.00000000
  24         0.00000000
  25         0.00000000
  26         0.00000000
  27         0.00000000
  28        -0.00000000
  29        -0.24157837
  30         0.03508346
  31        -0.00000000
  32         0.00000000
  33         0.00000000
  34        -0.17221376
  35         0.02500992
  36        -0.00000000
  37        -0.00000000
  38         0.00000000
  39         0.58420874
  40        -0.08484230
  41        -0.00000000
  42        -0.00000000
  43         0.00000000
  44         1.48301556
  45        -0.21537242
  46         0.00000000
  47        -0.00000000
  48         0.00000000
Sym=    10a' 
Ene=    -0.0687
Spin= Alpha
Occup=    0.00000
   1        -0.44983582
   2        -0.45394074
   3         0.03559782
   4         1.66938133
   5        -0.21837902
   6         0.00000000
   7        -0.13842254
   8         0.01810765
   9         0.00000000
  10        -0.00000000
  11         0.00000000
  12         0.00000000
  13        -0.00000000
  14        -0.00000000
  15        -0.38383907
  16        -0.48766843
  17         0.03874779
  18        -1.88720439
  19         0.38706312
  20         0.00000000
  21         0.15648410
  22        -0.03209468
  23         0.00000000
  24         0.00000000
  25         0.00000000
  26         0.00000000
  27         0.00000000
  28         0.00000000
  29         0.11916135
  30        -0.01730533
  31         0.00000000
  32        -0.00000000
  33         0.00000000
  34         0.26090117
  35        -0.03788963
  36        -0.00000000
  37         0.00000000
  38         0.00000000
  39         0.65246680
  40        -0.09475514
  41        -0.00000000
  42         0.00000000
  43         0.00000000
  44         0.28507400
  45        -0.04140016
  46        -0.00000000
  47         0.00000000
  48         0.00000000
Sym=    11a' 
Ene=    -0.0337
Spin= Alpha
Occup=    0.00000
   1        -0.14902128
   2        -0.09266412
   3         0.00697612
   4        -0.59835945
   5        -2.27382131
   6         0.00000000
   7         0.04961505
   8         0.18854178
   9         0.00000000
  10        -0.00000000
  11         0.00000000
  12         0.00000000
  13         0.00000000
  14         0.00000000
  15        -0.07657844
  16        -0.14171671
  17         0.01143776
  18         0.53407598
  19         2.83914294
  20         0.00000000
  21        -0.04428476
  22        -0.23541739
  23         0.00000000
  24         0.00000000
  25         0.00000000
  26         0.00000000
  27         0.00000000
  28        -0.00000000
  29        -0.19733493
  30         0.02865816
  31        -0.00000000
  32         0.00000000
  33         0.00000000
  34         0.13832037
  35        -0.02008771
  36        -0.00000000
  37        -0.00000000
  38         0.00000000
  39         0.92366179
  40        -0.13413971
  41        -0.00000000
  42        -0.00000000
  43         0.00000000
  44        -0.58827225
  45         0.08543243
  46         0.00000000
  47        -0.00000000
  48         0.00000000
Sym=    12a' 
Ene=    -0.0021
Spin= Alpha
Occup=    0.00000
   1        -4.49605995
   2       -13.52821826
   3         1.10613979
   4        -2.55843442
   5         1.12917463
   6         0.00000000
   7         0.21214148
   8        -0.09362943
   9         0.00000000
  10        -0.00000000
  11         0.00000000
  12         0.00000000
  13         0.00000000
  14         0.00000000
  15         4.54516779
  16        13.70369810
  17        -1.12053476
  18        -2.42216733
  19         0.98626692
  20         0.00000000
  21         0.20084241
  22        -0.08177975
  23         0.00000000
  24         0.00000000
  25         0.00000000
  26         0.00000000
  27         0.00000000
  28        -0.00000000
  29        -0.02354230
  30         0.00341896
  31        -0.00000000
  32         0.00000000
  33         0.00000000
  34        -0.08393010
  35         0.01218883
  36        -0.00000000
  37        -0.00000000
  38         0.00000000
  39        -0.16009185
  40         0.02324950
  41        -0.00000000
  42         0.00000000
  43         0.00000000
  44        -0.10751727
  45         0.01561430
  46         0.00000000
  47        -0.00000000
  48         0.00000000
Sym=    13a' 
Ene=     3.5578
Spin= Alpha
Occup=    0.00000
   1         0.00337421
   2        -0.04774259
   3       -68.41004228
   4        -0.04589614
   5         0.04278840
   6         0.00000000
   7        -9.74921512
   8        -0.50696405
   9         0.00000000
  10        -0.07142196
  11         0.00000000
  12         0.00000000
  13        -0.12616810
  14        -0.13115511
  15         0.01802670
  16         0.08723630
  17        66.41136267
  18        -0.06079468
  19        -0.06377628
  20         0.00000000
  21        -8.49207891
  22        10.27795773
  23         0.00000000
  24         0.03008630
  25         0.00000000
  26         0.00000000
  27         0.07395887
  28         0.01885039
  29         0.04817080
  30        -0.95072806
  31        -0.05049544
  32        -0.03533312
  33         0.00000000
  34         0.09477657
  35        -0.58891974
  36         0.00932651
  37         0.02679041
  38         0.00000000
  39        -0.20752443
  40         4.74893517
  41        -0.07600797
  42         0.14149438
  43         0.00000000
  44        -0.07060018
  45        -1.42615785
  46         0.03266081
  47         0.05899191
  48         0.00000000
Sym=    14a' 
Ene=     3.6401
Spin= Alpha
Occup=    0.00000
   1         0.07202278
   2         0.19117355
   3       -62.62181462
   4         0.11930723
   5        -0.05188581
   6         0.00000000
   7       -11.47320437
   8         5.29401660
   9         0.00000000
  10         0.06776493
  11         0.00000000
  12         0.00000000
  13        -0.09307658
  14         0.10275070
  15         0.14031381
  16         0.59408503
  17        62.46184799
  18        -0.00442852
  19         0.10988211
  20         0.00000000
  21        -6.22088535
  22         0.88267420
  23         0.00000000
  24         0.09226599
  25         0.00000000
  26         0.00000000
  27        -0.01006949
  28        -0.07861439
  29         0.27375834
  30        -0.90558457
  31        -0.04881884
  32        -0.04096801
  33         0.00000000
  34         0.42180513
  35        -2.23839943
  36        -0.10435638
  37         0.07222824
  38         0.00000000
  39        -0.17106310
  40        -0.10843979
  41         0.03067655
  42        -0.05682635
  43         0.00000000
  44        -0.18134474
  45         2.18808786
  46        -0.12403458
  47        -0.10421730
  48         0.00000000
Sym=    15a' 
Ene=     3.7529
Spin= Alpha
Occup=    0.00000
   1         0.03154531
   2         0.13826622
   3        -8.18383354
   4        -0.04337875
   5         0.05998860
   6         0.00000000
   7         1.11044969
   8        -1.15812923
   9         0.00000000
  10        -0.10134610
  11         0.00000000
  12         0.00000000
  13        -0.00451325
  14        -0.04272799
  15         0.02687172
  16         0.08718841
  17         4.63460101
  18         0.05990265
  19         0.06753223
  20         0.00000000
  21        -3.60173308
  22         1.31033658
  23         0.00000000
  24         0.17078462
  25         0.00000000
  26         0.00000000
  27         0.25952452
  28        -0.22033935
  29         0.09199621
  30        -0.42283604
  31         0.00532149
  32        -0.00671810
  33         0.00000000
  34        -0.59195709
  35         1.38909523
  36         0.07045303
  37        -0.03606813
  38         0.00000000
  39        -0.10424632
  40         1.29870926
  41        -0.00355089
  42         0.13852297
  43         0.00000000
  44        -0.40971332
  45         2.30268601
  46        -0.19242215
  47        -0.31048343
  48         0.00000000
Sym=    16a' 
Ene=     3.8461
Spin= Alpha
Occup=    0.00000
   1        -0.04657282
   2        -0.13970674
   3        -1.51907966
   4         0.03439729
   5        -0.02028583
   6         0.00000000
   7        -1.88544600
   8        -4.08575754
   9         0.00000000
  10         0.00784459
  11         0.00000000
  12         0.00000000
  13        -0.15169984
  14        -0.04747645
  15        -0.02319189
  16        -0.11690779
  17         1.99161608
  18         0.02115655
  19         0.04369908
  20         0.00000000
  21         1.21092497
  22         3.93075581
  23         0.00000000
  24        -0.02584315
  25         0.00000000
  26         0.00000000
  27        -0.21467785
  28        -0.24742054
  29         1.05913191
  30        -2.34767942
  31        -0.07949752
  32        -0.02251264
  33         0.00000000
  34        -0.61877322
  35         1.49314137
  36         0.00961793
  37        -0.02807015
  38         0.00000000
  39         0.25633100
  40         0.08466084
  41         0.05796649
  42        -0.19032862
  43         0.00000000
  44         0.10801706
  45        -0.44125607
  46        -0.08481128
  47        -0.00120038
  48         0.00000000
Sym=    17a' 
Ene=     4.1249
Spin= Alpha
Occup=    0.00000
   1         0.28400913
   2         1.32515259
   3        -1.35480033
   4        -0.27980839
   5         0.14101961
   6         0.00000000
   7        -2.81568279
   8        -2.30749572
   9         0.00000000
  10        -0.00486526
  11         0.00000000
  12         0.00000000
  13        -0.27086514
  14        -0.22052482
  15         0.06514135
  16         0.04687090
  17        -0.57572841
  18        -0.33994352
  19         0.19434979
  20         0.00000000
  21         3.02533390
  22         2.45732012
  23         0.00000000
  24         0.39451665
  25         0.00000000
  26         0.00000000
  27        -0.09409473
  28         0.09497643
  29        -0.79328887
  30         0.65833849
  31        -0.12232376
  32         0.03855875
  33         0.00000000
  34         0.11060201
  35        -0.34963252
  36        -0.00167687
  37        -0.05000654
  38         0.00000000
  39         0.28070870
  40         0.81163978
  41        -0.22403887
  42         0.19894554
  43         0.00000000
  44        -0.16901755
  45         0.44023354
  46        -0.22279492
  47        -0.17376628
  48         0.00000000
Sym=    18a' 
Ene=     4.2507
Spin= Alpha
Occup=    0.00000
   1        -0.19836173
   2        -0.81900040
   3        -5.42527224
   4         0.05600992
   5        -0.05435298
   6         0.00000000
   7         0.61893144
   8        -4.58162210
   9         0.00000000
  10         0.05731079
  11         0.00000000
  12         0.00000000
  13         0.05362850
  14        -0.37620318
  15        -0.17962881
  16        -0.60903506
  17         5.70553470
  18         0.22105680
  19         0.17849190
  20         0.00000000
  21        -2.39859865
  22         4.76588610
  23         0.00000000
  24        -0.28007422
  25         0.00000000
  26         0.00000000
  27        -0.22375656
  28        -0.43345095
  29        -0.75289100
  30         0.45811446
  31        -0.03001940
  32        -0.02649842
  33         0.00000000
  34         1.03067016
  35        -0.48811855
  36         0.01994002
  37        -0.07517895
  38         0.00000000
  39         0.06067081
  40         0.24486123
  41         0.23522968
  42        -0.37718855
  43         0.00000000
  44        -0.03147397
  45         0.15175871
  46        -0.10682900
  47        -0.10810866
  48         0.00000000
Sym=    19a' 
Ene=     4.4556
Spin= Alpha
Occup=    0.00000
   1        -0.06147448
   2        -0.43988900
   3       -55.75910484
   4         0.25668024
   5        -0.31568310
   6         0.00000000
   7        -9.64912646
   8         2.02645152
   9         0.00000000
  10         0.59687504
  11         0.00000000
  12         0.00000000
  13         0.02447639
  14         0.04487915
  15         0.09344480
  16         0.50229095
  17        56.50341107
  18         0.17654405
  19        -0.22396469
  20         0.00000000
  21        -5.31955617
  22         5.31911290
  23         0.00000000
  24        -0.54964813
  25         0.00000000
  26         0.00000000
  27        -0.24713084
  28        -0.04983639
  29        -1.13706209
  30         0.66604500
  31        -0.11056081
  32         0.07744252
  33         0.00000000
  34        -1.28323733
  35         0.42401189
  36        -0.15599071
  37        -0.03861864
  38         0.00000000
  39         0.06158084
  40         0.67941122
  41         0.21976926
  42        -0.24758125
  43         0.00000000
  44        -0.74489958
  45        -0.03907717
  46         0.10013898
  47         0.19667707
  48         0.00000000
Sym=    20a' 
Ene=     4.6527
Spin= Alpha
Occup=    0.00000
   1        -0.18759839
   2        -0.74480919
   3       -11.91162588
   4        -0.08331362
   5        -0.20126705
   6         0.00000000
   7        -0.36710979
   8         0.23963973
   9         0.00000000
  10         0.26404941
  11         0.00000000
  12         0.00000000
  13         0.40434762
  14        -0.18022533
  15        -0.44815798
  16        -1.90210217
  17        15.71446892
  18        -0.48698519
  19        -0.00016668
  20         0.00000000
  21        -1.50285326
  22         1.90815901
  23         0.00000000
  24        -0.13619050
  25         0.00000000
  26         0.00000000
  27        -0.26000933
  28         0.11439882
  29         0.49412083
  30        -0.38738768
  31        -0.11662333
  32        -0.09061356
  33         0.00000000
  34         0.34791680
  35        -0.31657359
  36         0.03308068
  37         0.10038687
  38         0.00000000
  39        -0.67135603
  40         0.40937968
  41         0.10804068
  42        -0.13250480
  43         0.00000000
  44        -1.45115558
  45        -0.18610448
  46         0.22510524
  47         0.13673867
  48         0.00000000
Sym=    21a' 
Ene=     4.6869
Spin= Alpha
Occup=    0.00000
   1         0.01884419
   2         0.07074252
   3       -25.51922711
   4         0.19923136
   5         0.02267921
   6         0.00000000
   7        -6.07044965
   8         0.88097090
   9         0.00000000
  10         0.19455189
  11         0.00000000
  12         0.00000000
  13        -0.38373514
  14        -0.06421820
  15         0.01489038
  16        -0.01666621
  17        26.32164154
  18         0.07205665
  19         0.23205896
  20         0.00000000
  21        -1.15033833
  22         1.29827129
  23         0.00000000
  24        -0.17479777
  25         0.00000000
  26         0.00000000
  27         0.04050679
  28        -0.08529463
  29        -0.62364077
  30         0.12021498
  31         0.14549073
  32        -0.60760959
  33         0.00000000
  34        -0.60500495
  35         0.11403659
  36         0.22988180
  37         0.55323507
  38         0.00000000
  39        -0.50055210
  40         0.19780775
  41         0.05021066
  42        -0.07450195
  43         0.00000000
  44         0.42412889
  45        -0.12296858
  46        -0.00291162
  47        -0.13131735
  48         0.00000000
Sym=    22a' 
Ene=     4.8844
Spin= Alpha
Occup=    0.00000
   1         0.11202948
   2         0.56510924
   3         4.53294388
   4        -0.30322534
   5        -0.16881378
   6         0.00000000
   7         1.39081222
   8        -3.57363950
   9         0.00000000
  10         0.04804019
  11         0.00000000
  12         0.00000000
  13         0.01383267
  14         0.02518723
  15         0.18990809
  16         0.76937591
  17        -7.79978621
  18         0.09328758
  19        -0.35313525
  20         0.00000000
  21        -0.05623667
  22         5.41989250
  23         0.00000000
  24         0.01981394
  25         0.00000000
  26         0.00000000
  27         0.08392227
  28         0.12183788
  29         0.25714323
  30        -0.13927941
  31         0.06576400
  32        -0.31157982
  33         0.00000000
  34         0.56709137
  35        -0.22939167
  36        -0.10282950
  37         0.23992380
  38         0.00000000