[Molden Format]
[N_Atoms]
                   10
[Atoms] (AU)
C1          1      6          -2.01348429      2.12110419      0.00000000
H2          2      1           0.08297787      2.12110419      0.00000000
H3          3      1          -2.71228611      3.65250045     -1.24965699
H4          4      1          -2.71230501      2.43763332      1.95104774
H5          5      1          -2.71230501      0.27317881     -0.70139075
C6          6      6          -2.01348429    191.09371665      0.00000000
H7          7      1           0.08297787    191.09371665      0.00000000
H8          8      1          -2.71228611    192.62511291     -1.24965699
H9          9      1          -2.71230501    191.41024578      1.95104774
H10        10      1          -2.71230501    189.24579127     -0.70139075
[5D]
[Charge] (Mulliken)
 -0.16648846736936473     
   4.1621857595094180E-002
   4.1622335038215108E-002
   4.1622143055883409E-002
   4.1622131680119523E-002
 -0.15433969877000475     
   3.6060721717529720E-002
   3.9425581055390291E-002
   3.9426681069414937E-002
   3.9426714927605855E-002
[GTO] (AU)
   1
   s   9
  6.665000000E+03  6.920001793E-04
  1.000000000E+03  5.329001381E-03
  2.280000000E+02  2.707700701E-02
  6.471000000E+01  1.017180264E-01
  2.106000000E+01  2.747400712E-01
  7.495000000E+00  4.485641162E-01
  2.797000000E+00  2.850740738E-01
  5.215000000E-01  1.520400394E-02
  1.596000000E-01 -3.191000827E-03
   s   9
  6.665000000E+03 -1.460000642E-04
  1.000000000E+03 -1.154000508E-03
  2.280000000E+02 -5.725002519E-03
  6.471000000E+01 -2.331201026E-02
  2.106000000E+01 -6.395502813E-02
  7.495000000E+00 -1.499810660E-01
  2.797000000E+00 -1.272620560E-01
  5.215000000E-01  5.445292395E-01
  1.596000000E-01  5.804962554E-01
   s   1
  1.596000000E-01  1.000000000E+00
   p   4
  9.439000000E+00  3.810902127E-02
  2.002000000E+00  2.094801169E-01
  5.456000000E-01  5.085572839E-01
  1.517000000E-01  4.688422617E-01
   p   1
  1.517000000E-01  1.000000000E+00
   d   1
  5.500000000E-01  1.000000000E+00
 
   2
   s   4
  1.301000000E+01  1.968498999E-02
  1.962000000E+00  1.379769298E-01
  4.446000000E-01  4.781477569E-01
  1.220000000E-01  5.012397451E-01
   s   1
  1.220000000E-01  1.000000000E+00
   p   1
  7.270000000E-01  1.000000000E+00
 
   3
   s   4
  1.301000000E+01  1.968498999E-02
  1.962000000E+00  1.379769298E-01
  4.446000000E-01  4.781477569E-01
  1.220000000E-01  5.012397451E-01
   s   1
  1.220000000E-01  1.000000000E+00
   p   1
  7.270000000E-01  1.000000000E+00
 
   4
   s   4
  1.301000000E+01  1.968498999E-02
  1.962000000E+00  1.379769298E-01
  4.446000000E-01  4.781477569E-01
  1.220000000E-01  5.012397451E-01
   s   1
  1.220000000E-01  1.000000000E+00
   p   1
  7.270000000E-01  1.000000000E+00
 
   5
   s   4
  1.301000000E+01  1.968498999E-02
  1.962000000E+00  1.379769298E-01
  4.446000000E-01  4.781477569E-01
  1.220000000E-01  5.012397451E-01
   s   1
  1.220000000E-01  1.000000000E+00
   p   1
  7.270000000E-01  1.000000000E+00
 
   6
   s   9
  6.665000000E+03  6.920001793E-04
  1.000000000E+03  5.329001381E-03
  2.280000000E+02  2.707700701E-02
  6.471000000E+01  1.017180264E-01
  2.106000000E+01  2.747400712E-01
  7.495000000E+00  4.485641162E-01
  2.797000000E+00  2.850740738E-01
  5.215000000E-01  1.520400394E-02
  1.596000000E-01 -3.191000827E-03
   s   9
  6.665000000E+03 -1.460000642E-04
  1.000000000E+03 -1.154000508E-03
  2.280000000E+02 -5.725002519E-03
  6.471000000E+01 -2.331201026E-02
  2.106000000E+01 -6.395502813E-02
  7.495000000E+00 -1.499810660E-01
  2.797000000E+00 -1.272620560E-01
  5.215000000E-01  5.445292395E-01
  1.596000000E-01  5.804962554E-01
   s   1
  1.596000000E-01  1.000000000E+00
   p   4
  9.439000000E+00  3.810902127E-02
  2.002000000E+00  2.094801169E-01
  5.456000000E-01  5.085572839E-01
  1.517000000E-01  4.688422617E-01
   p   1
  1.517000000E-01  1.000000000E+00
   d   1
  5.500000000E-01  1.000000000E+00
 
   7
   s   4
  1.301000000E+01  1.968498999E-02
  1.962000000E+00  1.379769298E-01
  4.446000000E-01  4.781477569E-01
  1.220000000E-01  5.012397451E-01
   s   1
  1.220000000E-01  1.000000000E+00
   p   1
  7.270000000E-01  1.000000000E+00
 
   8
   s   4
  1.301000000E+01  1.968498999E-02
  1.962000000E+00  1.379769298E-01
  4.446000000E-01  4.781477569E-01
  1.220000000E-01  5.012397451E-01
   s   1
  1.220000000E-01  1.000000000E+00
   p   1
  7.270000000E-01  1.000000000E+00
 
   9
   s   4
  1.301000000E+01  1.968498999E-02
  1.962000000E+00  1.379769298E-01
  4.446000000E-01  4.781477569E-01
  1.220000000E-01  5.012397451E-01
   s   1
  1.220000000E-01  1.000000000E+00
   p   1
  7.270000000E-01  1.000000000E+00
 
  10
   s   4
  1.301000000E+01  1.968498999E-02
  1.962000000E+00  1.379769298E-01
  4.446000000E-01  4.781477569E-01
  1.220000000E-01  5.012397451E-01
   s   1
  1.220000000E-01  1.000000000E+00
   p   1
  7.270000000E-01  1.000000000E+00
 
[MO]
Sym=     1a  
Ene=   -11.2250
Spin= Alpha
Occup=    2.00000
   1         1.00156940
   2         0.00886602
   3        -0.00987170
   4         0.00000000
   5        -0.00000000
   6         0.00000000
   7        -0.00000001
   8         0.00000000
   9        -0.00000000
  10         0.00000000
  11        -0.00000001
  12        -0.00000001
  13        -0.00000001
  14         0.00000001
  15         0.00003061
  16         0.00116325
  17         0.00042518
  18        -0.00000000
  19         0.00000000
  20         0.00003060
  21         0.00116326
  22        -0.00014173
  23         0.00031058
  24        -0.00025344
  25         0.00003060
  26         0.00116327
  27        -0.00014172
  28         0.00006420
  29         0.00039569
  30         0.00003060
  31         0.00116327
  32        -0.00014172
  33        -0.00037477
  34        -0.00014225
  35         0.00000000
  36         0.00000000
  37         0.00000000
  38         0.00000000
  39         0.00000000
  40         0.00000000
  41         0.00000000
  42         0.00000000
  43         0.00000000
  44         0.00000000
  45         0.00000000
  46         0.00000000
  47         0.00000000
  48         0.00000000
  49         0.00000000
  50         0.00000000
  51         0.00000000
  52         0.00000000
  53         0.00000000
  54         0.00000000
  55         0.00000000
  56         0.00000000
  57         0.00000000
  58         0.00000000
  59         0.00000000
  60         0.00000000
  61         0.00000000
  62         0.00000000
  63         0.00000000
  64         0.00000000
  65         0.00000000
  66         0.00000000
  67         0.00000000
  68         0.00000000
Sym=     2a  
Ene=   -11.2210
Spin= Alpha
Occup=    2.00000
   1         0.00000000
   2         0.00000000
   3         0.00000000
   4         0.00000000
   5         0.00000000
   6         0.00000000
   7         0.00000000
   8         0.00000000
   9         0.00000000
  10         0.00000000
  11         0.00000000
  12         0.00000000
  13         0.00000000
  14         0.00000000
  15         0.00000000
  16         0.00000000
  17         0.00000000
  18         0.00000000
  19         0.00000000
  20         0.00000000
  21         0.00000000
  22         0.00000000
  23         0.00000000
  24         0.00000000
  25         0.00000000
  26         0.00000000
  27         0.00000000
  28         0.00000000
  29         0.00000000
  30         0.00000000
  31         0.00000000
  32         0.00000000
  33         0.00000000
  34         0.00000000
  35         1.00161554
  36         0.00785554
  37        -0.00967120
  38        -0.00214953
  39        -0.00000019
  40         0.00000015
  41         0.00038949
  42         0.00000007
  43        -0.00000006
  44         0.00004665
  45        -0.00000002
  46         0.00000001
  47        -0.00008079
  48         0.00000002
  49        -0.00250324
  50         0.00187766
  51         0.00051294
  52        -0.00000000
  53         0.00000000
  54         0.00025321
  55         0.00118985
  56        -0.00018573
  57         0.00032185
  58        -0.00026264
  59         0.00025325
  60         0.00118982
  61        -0.00018574
  62         0.00006653
  63         0.00041009
  64         0.00025324
  65         0.00118982
  66        -0.00018574
  67        -0.00038841
  68        -0.00014743
Sym=     3a  
Ene=    -0.9341
Spin= Alpha
Occup=    2.00000
   1        -0.02668049
   2         0.74088574
   3        -0.17902917
   4        -0.00000022
   5        -0.00000049
   6         0.00000036
   7         0.00000001
   8         0.00000026
   9        -0.00000019
  10         0.00000002
  11        -0.00000001
  12         0.00000003
  13        -0.00000003
  14         0.00000001
  15         0.30822120
  16        -0.12614467
  17        -0.02556871
  18         0.00000000
  19        -0.00000000
  20         0.30822182
  21        -0.12614513
  22         0.00852272
  23        -0.01867716
  24         0.01524102
  25         0.30822300
  26        -0.12614563
  27         0.00852296
  28        -0.00386049
  29        -0.02379536
  30         0.30822307
  31        -0.12614566
  32         0.00852296
  33         0.02253766
  34         0.00855434
  35         0.00000000
  36         0.00000000
  37         0.00000000
  38         0.00000000
  39         0.00000000
  40         0.00000000
  41         0.00000000
  42         0.00000000
  43         0.00000000
  44         0.00000000
  45         0.00000000
  46         0.00000000
  47         0.00000000
  48         0.00000000
  49         0.00000000
  50         0.00000000
  51         0.00000000
  52         0.00000000
  53         0.00000000
  54         0.00000000
  55         0.00000000
  56         0.00000000
  57         0.00000000
  58         0.00000000
  59         0.00000000
  60         0.00000000
  61         0.00000000
  62         0.00000000
  63         0.00000000
  64         0.00000000
  65         0.00000000
  66         0.00000000
  67         0.00000000
  68         0.00000000
Sym=     4a  
Ene=    -0.8676
Spin= Alpha
Occup=    2.00000
   1         0.00000000
   2         0.00000000
   3         0.00000000
   4         0.00000000
   5         0.00000000
   6         0.00000000
   7         0.00000000
   8         0.00000000
   9         0.00000000
  10         0.00000000
  11         0.00000000
  12         0.00000000
  13         0.00000000
  14         0.00000000
  15         0.00000000
  16         0.00000000
  17         0.00000000
  18         0.00000000
  19         0.00000000
  20         0.00000000
  21         0.00000000
  22         0.00000000
  23         0.00000000
  24         0.00000000
  25         0.00000000
  26         0.00000000
  27         0.00000000
  28         0.00000000
  29         0.00000000
  30         0.00000000
  31         0.00000000
  32         0.00000000
  33         0.00000000
  34         0.00000000
  35        -0.02475902
  36         0.67440026
  37        -0.16190599
  38        -0.25687382
  39        -0.00001205
  40         0.00000972
  41         0.03931169
  42         0.00000194
  43        -0.00000152
  44         0.00543585
  45        -0.00000029
  46         0.00000026
  47        -0.00941507
  48         0.00000036
  49         0.01238422
  50        -0.04708447
  51        -0.01426076
  52        -0.00000013
  53         0.00000011
  54         0.37114428
  55        -0.13751394
  56         0.00424784
  57        -0.02055545
  58         0.01677375
  59         0.37116551
  60        -0.13752277
  61         0.00424875
  62        -0.00424916
  63        -0.02618913
  64         0.37116565
  65        -0.13752286
  66         0.00424876
  67         0.02480485
  68         0.00941520
Sym=     5a  
Ene=    -0.5377
Spin= Alpha
Occup=    2.00000
   1        -0.00000001
   2        -0.00000027
   3        -0.00000058
   4        -0.25785592
   5        -0.44548612
   6         0.36169822
   7         0.03828965
   8         0.06615133
   9        -0.05370945
  10         0.00890873
  11        -0.00888763
  12         0.01954546
  13        -0.00752845
  14         0.01094646
  15        -0.26984593
  16         0.06752015
  17         0.00921216
  18        -0.00896976
  19         0.00728271
  20        -0.47622505
  21         0.11916001
  22        -0.01366510
  23         0.00959893
  24        -0.00786980
  25         0.37182385
  26        -0.09303710
  27         0.00142395
  28        -0.01196641
  29        -0.01118817
  30         0.37424599
  31        -0.09364317
  32         0.00146704
  33         0.00863881
  34         0.01396617
  35         0.00000000
  36         0.00000000
  37         0.00000000
  38         0.00000000
  39         0.00000000
  40         0.00000000
  41         0.00000000
  42         0.00000000
  43         0.00000000
  44         0.00000000
  45         0.00000000
  46         0.00000000
  47         0.00000000
  48         0.00000000
  49         0.00000000
  50         0.00000000
  51         0.00000000
  52         0.00000000
  53         0.00000000
  54         0.00000000
  55         0.00000000
  56         0.00000000
  57         0.00000000
  58         0.00000000
  59         0.00000000
  60         0.00000000
  61         0.00000000
  62         0.00000000
  63         0.00000000
  64         0.00000000
  65         0.00000000
  66         0.00000000
  67         0.00000000
  68         0.00000000
Sym=     6a  
Ene=    -0.5377
Spin= Alpha
Occup=    2.00000
   1         0.00000000
   2         0.00000002
   3         0.00000002
   4         0.00427296
   5         0.39503660
   6         0.48959355
   7        -0.00063450
   8        -0.05865928
   9        -0.07270011
  10         0.01847739
  11        -0.01203037
  12        -0.00426603
  13         0.01087792
  14        -0.00970690
  15         0.00447169
  16        -0.00111889
  17        -0.00015266
  18         0.00795393
  19         0.00985780
  20        -0.00491807
  21         0.00123058
  22        -0.00000147
  23         0.00814569
  24         0.00970132
  25         0.53775249
  26        -0.13455442
  27         0.00965420
  28         0.00362008
  29        -0.01685564
  30        -0.53730608
  31         0.13444273
  32        -0.00947419
  33        -0.01732658
  34         0.00026246
  35         0.00000000
  36         0.00000000
  37         0.00000000
  38         0.00000000
  39         0.00000000
  40         0.00000000
  41         0.00000000
  42         0.00000000
  43         0.00000000
  44         0.00000000
  45         0.00000000
  46         0.00000000
  47         0.00000000
  48         0.00000000
  49         0.00000000
  50         0.00000000
  51         0.00000000
  52         0.00000000
  53         0.00000000
  54         0.00000000
  55         0.00000000
  56         0.00000000
  57         0.00000000
  58         0.00000000
  59         0.00000000
  60         0.00000000
  61         0.00000000
  62         0.00000000
  63         0.00000000
  64         0.00000000
  65         0.00000000
  66         0.00000000
  67         0.00000000
  68         0.00000000
Sym=     7a  
Ene=    -0.5377
Spin= Alpha
Occup=    2.00000
   1        -0.00000002
   2         0.00000069
   3        -0.00000032
   4        -0.57381625
   5         0.20312993
   6        -0.15889068
   7         0.08520545
   8        -0.03016258
   9         0.02359354
  10         0.01081162
  11         0.00390413
  12        -0.00881493
  13        -0.02195785
  14        -0.00499115
  15        -0.60050206
  16         0.15025443
  17         0.02050022
  18         0.00408995
  19        -0.00319921
  20         0.45456043
  21        -0.11373782
  22        -0.00346595
  23        -0.01363389
  24         0.01126388
  25         0.07751716
  26        -0.01939594
  27        -0.01017440
  28         0.00346522
  29        -0.00704997
  30         0.06842324
  31        -0.01712050
  32        -0.01033621
  33         0.00730931
  34        -0.00197728
  35         0.00000000
  36         0.00000000
  37         0.00000000
  38         0.00000000
  39         0.00000000
  40         0.00000000
  41         0.00000000
  42         0.00000000
  43         0.00000000
  44         0.00000000
  45         0.00000000
  46         0.00000000
  47         0.00000000
  48         0.00000000
  49         0.00000000
  50         0.00000000
  51         0.00000000
  52         0.00000000
  53         0.00000000
  54         0.00000000
  55         0.00000000
  56         0.00000000
  57         0.00000000
  58         0.00000000
  59         0.00000000
  60         0.00000000
  61         0.00000000
  62         0.00000000
  63         0.00000000
  64         0.00000000
  65         0.00000000
  66         0.00000000
  67         0.00000000
  68         0.00000000
Sym=     8a  
Ene=    -0.5371
Spin= Alpha
Occup=    2.00000
   1         0.00000000
   2         0.00000000
   3         0.00000000
   4         0.00000000
   5         0.00000000
   6         0.00000000
   7         0.00000000
   8         0.00000000
   9         0.00000000
  10         0.00000000
  11         0.00000000
  12         0.00000000
  13         0.00000000
  14         0.00000000
  15         0.00000000
  16         0.00000000
  17         0.00000000
  18         0.00000000
  19         0.00000000
  20         0.00000000
  21         0.00000000
  22         0.00000000
  23         0.00000000
  24         0.00000000
  25         0.00000000
  26         0.00000000
  27         0.00000000
  28         0.00000000
  29         0.00000000
  30         0.00000000
  31         0.00000000
  32         0.00000000
  33         0.00000000
  34         0.00000000
  35        -0.00000018
  36         0.00000174
  37         0.00000232
  38        -0.00003118
  39         0.48690094
  40        -0.39597324
  41         0.00000377
  42        -0.07201728
  43         0.05856820
  44        -0.00375476
  45         0.00976299
  46        -0.02136415
  47        -0.00216948
  48        -0.01200487
  49        -0.00002825
  50         0.00000335
  51         0.00000072
  52         0.00969144
  53        -0.00788159
  54         0.62138095
  55        -0.15483522
  56         0.01108211
  57        -0.01440791
  58         0.01178446
  59        -0.30977595
  60         0.07718857
  61        -0.00552594
  62         0.01232706
  63         0.00740035
  64        -0.31156941
  65         0.07763548
  66        -0.00555793
  67        -0.00483546
  68        -0.01356011
Sym=     9a  
Ene=    -0.5371
Spin= Alpha
Occup=    2.00000
   1         0.00000000
   2         0.00000000
   3         0.00000000
   4         0.00000000
   5         0.00000000
   6         0.00000000
   7         0.00000000
   8         0.00000000
   9         0.00000000
  10         0.00000000
  11         0.00000000
  12         0.00000000
  13         0.00000000
  14         0.00000000
  15         0.00000000
  16         0.00000000
  17         0.00000000
  18         0.00000000
  19         0.00000000
  20         0.00000000
  21         0.00000000
  22         0.00000000
  23         0.00000000
  24         0.00000000
  25         0.00000000
  26         0.00000000
  27         0.00000000
  28         0.00000000
  29         0.00000000
  30         0.00000000
  31         0.00000000
  32         0.00000000
  33         0.00000000
  34         0.00000000
  35        -0.00000000
  36         0.00000005
  37         0.00000003
  38         0.00000002
  39         0.39597345
  40         0.48690115
  41         0.00000002
  42        -0.05856835
  43        -0.07201741
  44         0.01850300
  45        -0.01200475
  46        -0.00433674
  47         0.01068272
  48        -0.00976289
  49         0.00000007
  50        -0.00000010
  51        -0.00000001
  52         0.00788172
  53         0.00969161
  54        -0.00103543
  55         0.00025805
  56        -0.00001847
  57         0.00803422
  58         0.00979651
  59         0.53863915
  60        -0.13421552
  61         0.00960757
  62         0.00365128
  63        -0.01693774
  64        -0.53760369
  65         0.13395751
  66        -0.00958910
  67        -0.01730987
  68         0.00022533
Sym=    10a  
Ene=    -0.5985
Spin= Alpha
Occup=    1.98155
   1         0.00000000
   2         0.00000000
   3         0.00000000
   4         0.00000000
   5         0.00000000
   6         0.00000000
   7         0.00000000
   8         0.00000000
   9         0.00000000
  10         0.00000000
  11         0.00000000
  12         0.00000000
  13         0.00000000
  14         0.00000000
  15         0.00000000
  16         0.00000000
  17         0.00000000
  18         0.00000000
  19         0.00000000
  20         0.00000000
  21         0.00000000
  22         0.00000000
  23         0.00000000
  24         0.00000000
  25         0.00000000
  26         0.00000000
  27         0.00000000
  28         0.00000000
  29         0.00000000
  30         0.00000000
  31         0.00000000
  32         0.00000000
  33         0.00000000
  34         0.00000000
  35        -0.00429388
  36         0.31448519
  37        -0.08858683
  38         0.58463565
  39         0.00002569
  40        -0.00002079
  41        -0.09829723
  42        -0.00000536
  43         0.00000423
  44        -0.01256554
  45        -0.00000096
  46         0.00000037
  47         0.02176427
  48         0.00000131
  49         0.73620082
  50        -0.20825167
  51        -0.02553073
  52        -0.00000051
  53         0.00000030
  54        -0.07353244
  55        -0.00138925
  56         0.01144628
  57         0.00015510
  58        -0.00012656
  59        -0.07357305
  60        -0.00137187
  61         0.01144577
  62         0.00003296
  63         0.00019942
  64        -0.07357310
  65        -0.00137184
  66         0.01144577
  67        -0.00018877
  68        -0.00007229
Sym=    11a  
Ene=    -0.0002
Spin= Alpha
Occup=    0.01845
   1         0.00000000
   2         0.00000000
   3         0.00000000
   4         0.00000000
   5         0.00000000
   6         0.00000000
   7         0.00000000
   8         0.00000000
   9         0.00000000
  10         0.00000000
  11         0.00000000
  12         0.00000000
  13         0.00000000
  14         0.00000000
  15         0.00000000
  16         0.00000000
  17         0.00000000
  18         0.00000000
  19         0.00000000
  20         0.00000000
  21         0.00000000
  22         0.00000000
  23         0.00000000
  24         0.00000000
  25         0.00000000
  26         0.00000000
  27         0.00000000
  28         0.00000000
  29         0.00000000
  30         0.00000000
  31         0.00000000
  32         0.00000000
  33         0.00000000
  34         0.00000000
  35         0.14233717
  36         1.02872295
  37        -0.36465283
  38         1.18087599
  39         0.00005418
  40        -0.00004366
  41        -0.35097170
  42        -0.00001481
  43         0.00001485
  44        -0.05259666
  45        -0.00003548
  46         0.00000867
  47         0.09110320
  48         0.00004799
  49        -1.71957966
  50         0.62479575
  51        -0.03738129
  52         0.00004579
  53        -0.00003240
  54        -0.03152177
  55         0.01259214
  56         0.00769489
  57         0.00107763
  58        -0.00087961
  59        -0.03149876
  60         0.01266373
  61         0.00770218
  62         0.00022076
  63         0.00138006
  64        -0.03149527
  65         0.01266530
  66         0.00770241
  67        -0.00130804
  68        -0.00049337
Sym=    12a  
Ene=     0.1905
Spin= Alpha
Occup=    0.00000
   1         0.09692220
   2        -0.15725473
   3        -2.21056001
   4        -0.00000146
   5        -0.00000050
   6         0.00000037
   7        -0.00000355
   8        -0.00000029
   9         0.00000022
  10        -0.00000002
  11         0.00000023
  12         0.00000024
  13         0.00000013
  14        -0.00000028
  15         0.02347367
  16         0.82442677
  17        -0.01315229
  18         0.00000004
  19        -0.00000003
  20         0.02347375
  21         0.82442557
  22         0.00438409
  23        -0.00960730
  24         0.00783979
  25         0.02347322
  26         0.82442507
  27         0.00438411
  28        -0.00198587
  29        -0.01224004
  30         0.02347319
  31         0.82442504
  32         0.00438411
  33         0.01159307
  34         0.00440033
  35         0.00000000
  36         0.00000000
  37         0.00000000
  38         0.00000000
  39         0.00000000
  40         0.00000000
  41         0.00000000
  42         0.00000000
  43         0.00000000
  44         0.00000000
  45         0.00000000
  46         0.00000000
  47         0.00000000
  48         0.00000000
  49         0.00000000
  50         0.00000000
  51         0.00000000
  52         0.00000000
  53         0.00000000
  54         0.00000000
  55         0.00000000
  56         0.00000000
  57         0.00000000
  58         0.00000000
  59         0.00000000
  60         0.00000000
  61         0.00000000
  62         0.00000000
  63         0.00000000
  64         0.00000000
  65         0.00000000
  66         0.00000000
  67         0.00000000
  68         0.00000000
Sym=    13a  
Ene=     0.2088
Spin= Alpha
Occup=    0.00000
   1         0.00000000
   2         0.00000000
   3         0.00000000
   4         0.00000000
   5         0.00000000
   6         0.00000000
   7         0.00000000
   8         0.00000000
   9         0.00000000
  10         0.00000000
  11         0.00000000
  12         0.00000000
  13         0.00000000
  14         0.00000000
  15         0.00000000
  16         0.00000000
  17         0.00000000
  18         0.00000000
  19         0.00000000
  20         0.00000000
  21         0.00000000
  22         0.00000000
  23         0.00000000
  24         0.00000000
  25         0.00000000
  26         0.00000000
  27         0.00000000
  28         0.00000000
  29         0.00000000
  30         0.00000000
  31         0.00000000
  32         0.00000000
  33         0.00000000
  34         0.00000000
  35         0.09710464
  36        -0.08055790
  37        -2.05418928
  38         0.25275659
  39         0.00002189
  40        -0.00001685
  41         0.45485537
  42         0.00004915
  43        -0.00003670
  44         0.00059688
  45        -0.00000104
  46        -0.00000021
  47        -0.00103390
  48         0.00000148
  49        -0.12963449
  50        -0.05849469
  51        -0.01484265
  52         0.00000212
  53        -0.00000152
  54         0.03137827
  55         1.04422950
  56         0.00825151
  57        -0.01122730
  58         0.00916172
  59         0.03138958
  60         1.04438548
  61         0.00825169
  62        -0.00232124
  63        -0.01430516
  64         0.03139074
  65         1.04439166
  66         0.00825168
  67         0.01354905
  68         0.00514306
Sym=    14a  
Ene=     0.2710
Spin= Alpha
Occup=    0.00000
   1         0.00000004
   2        -0.00000085
   3        -0.00000527
   4         0.41392674
   5        -0.13952171
   6         0.11150284
   7         1.08554355
   8        -0.36590293
   9         0.29242201
  10        -0.00899523
  11        -0.00316595
  12         0.00704062
  13         0.01831355
  14         0.00396150
  15        -0.08754363
  16        -1.97528542
  17         0.02746587
  18        -0.00017448
  19         0.00013944
  20         0.06479325
  21         1.46194617
  22         0.00716588
  23        -0.01474355
  24         0.01202816
  25         0.01169014
  26         0.26376728
  27         0.00171748
  28        -0.00071796
  29        -0.00320934
  30         0.01106121
  31         0.24957710
  32         0.00165295
  33         0.00282662
  34         0.00127872
  35         0.00000000
  36         0.00000000
  37         0.00000000
  38         0.00000000
  39         0.00000000
  40         0.00000000
  41         0.00000000
  42         0.00000000
  43         0.00000000
  44         0.00000000
  45         0.00000000
  46         0.00000000
  47         0.00000000
  48         0.00000000
  49         0.00000000
  50         0.00000000
  51         0.00000000
  52         0.00000000
  53         0.00000000
  54         0.00000000
  55         0.00000000
  56         0.00000000
  57         0.00000000
  58         0.00000000
  59         0.00000000
  60         0.00000000
  61         0.00000000
  62         0.00000000
  63         0.00000000
  64         0.00000000
  65         0.00000000
  66         0.00000000
  67         0.00000000
  68         0.00000000
Sym=    15a  
Ene=     0.2710
Spin= Alpha
Occup=    0.00000
   1         0.00000017
   2         0.00000003
   3        -0.00000823
   4         0.17814849
   5         0.30244924
   6        -0.28288108
   7         0.46720774
   8         0.79319661
   9        -0.74187706
  10        -0.00821507
  11         0.00803266
  12        -0.01603019
  13         0.00537435
  14        -0.00858835
  15        -0.03767462
  16        -0.85013285
  17         0.01182091
  18         0.00037811
  19        -0.00035368
  20        -0.06982414
  21        -1.57558429
  22        -0.00694211
  23         0.01607979
  24        -0.01316665
  25         0.05857552
  26         1.32176796
  27         0.00623360
  28        -0.00234438
  29        -0.01713563
  30         0.04892256
  31         1.10395860
  32         0.00524310
  33         0.01365385
  34         0.00468508
  35         0.00000000
  36         0.00000000
  37         0.00000000
  38         0.00000000
  39         0.00000000
  40         0.00000000
  41         0.00000000
  42         0.00000000
  43         0.00000000
  44         0.00000000
  45         0.00000000
  46         0.00000000
  47         0.00000000
  48         0.00000000
  49         0.00000000
  50         0.00000000
  51         0.00000000
  52         0.00000000
  53         0.00000000
  54         0.00000000