[Molden Format]
[N_Atoms]
                    6
[Atoms] (AU)
C1          1      6        -190.62215440      2.98674993      0.00000000
C2          2      6          -1.03572109      2.72640237      0.00000000
H3          3      1        -193.71892419      1.42540152      0.00000000
H4          4      1        -193.37183819      4.76305470      0.00000000
H5          5      1          -0.17576343      0.95009760      0.00000000
H6          6      1           0.17132257      4.28775078      0.00000000
[5D]
[Charge] (Mulliken)
 -0.36253947696161593     
  0.46515674171633403     
 -0.36582524665344818     
 -0.27163527638502072     
  0.26742755284607023     
  0.26741570543753146     
[GTO] (AU)
   1
   s   9
  6.665000000E+03  6.920001793E-04
  1.000000000E+03  5.329001381E-03
  2.280000000E+02  2.707700701E-02
  6.471000000E+01  1.017180264E-01
  2.106000000E+01  2.747400712E-01
  7.495000000E+00  4.485641162E-01
  2.797000000E+00  2.850740738E-01
  5.215000000E-01  1.520400394E-02
  1.596000000E-01 -3.191000827E-03
   s   9
  6.665000000E+03 -1.460000642E-04
  1.000000000E+03 -1.154000508E-03
  2.280000000E+02 -5.725002519E-03
  6.471000000E+01 -2.331201026E-02
  2.106000000E+01 -6.395502813E-02
  7.495000000E+00 -1.499810660E-01
  2.797000000E+00 -1.272620560E-01
  5.215000000E-01  5.445292395E-01
  1.596000000E-01  5.804962554E-01
   s   1
  1.596000000E-01  1.000000000E+00
   p   4
  9.439000000E+00  3.810902127E-02
  2.002000000E+00  2.094801169E-01
  5.456000000E-01  5.085572839E-01
  1.517000000E-01  4.688422617E-01
   p   1
  1.517000000E-01  1.000000000E+00
   d   1
  5.500000000E-01  1.000000000E+00
 
   2
   s   9
  6.665000000E+03  6.920001793E-04
  1.000000000E+03  5.329001381E-03
  2.280000000E+02  2.707700701E-02
  6.471000000E+01  1.017180264E-01
  2.106000000E+01  2.747400712E-01
  7.495000000E+00  4.485641162E-01
  2.797000000E+00  2.850740738E-01
  5.215000000E-01  1.520400394E-02
  1.596000000E-01 -3.191000827E-03
   s   9
  6.665000000E+03 -1.460000642E-04
  1.000000000E+03 -1.154000508E-03
  2.280000000E+02 -5.725002519E-03
  6.471000000E+01 -2.331201026E-02
  2.106000000E+01 -6.395502813E-02
  7.495000000E+00 -1.499810660E-01
  2.797000000E+00 -1.272620560E-01
  5.215000000E-01  5.445292395E-01
  1.596000000E-01  5.804962554E-01
   s   1
  1.596000000E-01  1.000000000E+00
   p   4
  9.439000000E+00  3.810902127E-02
  2.002000000E+00  2.094801169E-01
  5.456000000E-01  5.085572839E-01
  1.517000000E-01  4.688422617E-01
   p   1
  1.517000000E-01  1.000000000E+00
   d   1
  5.500000000E-01  1.000000000E+00
 
   3
   s   4
  1.301000000E+01  1.968498999E-02
  1.962000000E+00  1.379769298E-01
  4.446000000E-01  4.781477569E-01
  1.220000000E-01  5.012397451E-01
   s   1
  1.220000000E-01  1.000000000E+00
   p   1
  7.270000000E-01  1.000000000E+00
 
   4
   s   4
  1.301000000E+01  1.968498999E-02
  1.962000000E+00  1.379769298E-01
  4.446000000E-01  4.781477569E-01
  1.220000000E-01  5.012397451E-01
   s   1
  1.220000000E-01  1.000000000E+00
   p   1
  7.270000000E-01  1.000000000E+00
 
   5
   s   4
  1.301000000E+01  1.968498999E-02
  1.962000000E+00  1.379769298E-01
  4.446000000E-01  4.781477569E-01
  1.220000000E-01  5.012397451E-01
   s   1
  1.220000000E-01  1.000000000E+00
   p   1
  7.270000000E-01  1.000000000E+00
 
   6
   s   4
  1.301000000E+01  1.968498999E-02
  1.962000000E+00  1.379769298E-01
  4.446000000E-01  4.781477569E-01
  1.220000000E-01  5.012397451E-01
   s   1
  1.220000000E-01  1.000000000E+00
   p   1
  7.270000000E-01  1.000000000E+00
 
[MO]
Sym=     1a' 
Ene=   -11.7270
Spin= Alpha
Occup=    1.00000
   1         0.00000000
   2         0.00000000
   3        -0.00000000
   4         0.00000000
   5         0.00000000
   6         0.00000000
   7        -0.00000000
   8        -0.00000000
   9         0.00000000
  10         0.00000000
  11         0.00000000
  12         0.00000000
  13        -0.00000000
  14        -0.00000000
  15         1.00072692
  16         0.00416953
  17        -0.00630229
  18        -0.00206226
  19         0.00021456
  20         0.00000000
  21         0.00049555
  22        -0.00005160
  23         0.00000000
  24         0.00018069
  25         0.00000000
  26         0.00000000
  27        -0.00074429
  28         0.00015651
  29         0.00000000
  30        -0.00000000
  31        -0.00000000
  32         0.00000000
  33         0.00000000
  34         0.00000000
  35        -0.00000000
  36        -0.00000000
  37         0.00000000
  38         0.00000000
  39         0.00057258
  40         0.00148023
  41         0.00016650
  42         0.00035657
  43         0.00000000
  44         0.00057250
  45         0.00148030
  46         0.00008959
  47        -0.00038317
  48         0.00000000
Sym=     1a' 
Ene=   -11.7270
Spin= Beta
Occup=    1.00000
   1         0.00000000
   2         0.00000000
   3        -0.00000000
   4         0.00000000
   5         0.00000000
   6         0.00000000
   7        -0.00000000
   8        -0.00000000
   9         0.00000000
  10         0.00000000
  11         0.00000000
  12         0.00000000
  13        -0.00000000
  14        -0.00000000
  15         1.00072692
  16         0.00416953
  17        -0.00630229
  18        -0.00206226
  19         0.00021456
  20         0.00000000
  21         0.00049555
  22        -0.00005160
  23         0.00000000
  24         0.00018069
  25         0.00000000
  26         0.00000000
  27        -0.00074429
  28         0.00015651
  29         0.00000000
  30        -0.00000000
  31        -0.00000000
  32         0.00000000
  33         0.00000000
  34         0.00000000
  35        -0.00000000
  36        -0.00000000
  37         0.00000000
  38         0.00000000
  39         0.00057258
  40         0.00148023
  41         0.00016650
  42         0.00035657
  43         0.00000000
  44         0.00057250
  45         0.00148030
  46         0.00008959
  47        -0.00038317
  48         0.00000000
Sym=     2a' 
Ene=   -11.0740
Spin= Alpha
Occup=    1.00000
   1         1.00009214
   2        -0.00007008
   3        -0.00081105
   4        -0.00210450
   5         0.00017806
   6         0.00000000
   7         0.00239832
   8        -0.00019725
   9         0.00000000
  10         0.00029078
  11         0.00000000
  12         0.00000000
  13        -0.00016904
  14        -0.00002683
  15        -0.00000000
  16         0.00000000
  17        -0.00000000
  18         0.00000000
  19        -0.00000000
  20         0.00000000
  21        -0.00000000
  22        -0.00000000
  23         0.00000000
  24        -0.00000000
  25         0.00000000
  26         0.00000000
  27        -0.00000000
  28        -0.00000000
  29         0.00051256
  30         0.00038857
  31         0.00020761
  32         0.00006152
  33         0.00000000
  34         0.00056716
  35         0.00044158
  36         0.00011627
  37        -0.00003146
  38         0.00000000
  39        -0.00000000
  40        -0.00000000
  41         0.00000000
  42        -0.00000000
  43         0.00000000
  44         0.00000000
  45         0.00000000
  46         0.00000000
  47         0.00000000
  48         0.00000000
Sym=     2a' 
Ene=   -11.0740
Spin= Beta
Occup=    1.00000
   1         1.00009214
   2        -0.00007008
   3        -0.00081105
   4        -0.00210450
   5         0.00017806
   6         0.00000000
   7         0.00239832
   8        -0.00019725
   9         0.00000000
  10         0.00029078
  11         0.00000000
  12         0.00000000
  13        -0.00016904
  14        -0.00002683
  15        -0.00000000
  16         0.00000000
  17        -0.00000000
  18         0.00000000
  19        -0.00000000
  20         0.00000000
  21        -0.00000000
  22        -0.00000000
  23         0.00000000
  24        -0.00000000
  25         0.00000000
  26         0.00000000
  27        -0.00000000
  28        -0.00000000
  29         0.00051256
  30         0.00038857
  31         0.00020761
  32         0.00006152
  33         0.00000000
  34         0.00056716
  35         0.00044158
  36         0.00011627
  37        -0.00003146
  38         0.00000000
  39        -0.00000000
  40        -0.00000000
  41         0.00000000
  42        -0.00000000
  43         0.00000000
  44         0.00000000
  45         0.00000000
  46         0.00000000
  47         0.00000000
  48         0.00000000
Sym=     3a' 
Ene=    -1.2618
Spin= Alpha
Occup=    1.00000
   1         0.00000000
   2         0.00000000
   3        -0.00000000
   4         0.00000000
   5         0.00000000
   6         0.00000000
   7        -0.00000000
   8         0.00000000
   9         0.00000000
  10         0.00000000
  11         0.00000000
  12         0.00000000
  13        -0.00000000
  14         0.00000000
  15        -0.00365578
  16         0.88984425
  17        -0.19679031
  18         0.13557156
  19        -0.01409208
  20         0.00000000
  21        -0.04951988
  22         0.00514861
  23         0.00000000
  24        -0.00478097
  25         0.00000000
  26         0.00000000
  27        -0.01012921
  28         0.00212992
  29        -0.00000000
  30         0.00000000
  31        -0.00000000
  32         0.00000000
  33         0.00000000
  34         0.00000000
  35        -0.00000000
  36        -0.00000000
  37        -0.00000000
  38         0.00000000
  39         0.41466933
  40        -0.20827607
  41        -0.01367687
  42         0.03108089
  43         0.00000000
  44         0.41468177
  45        -0.20828086
  46        -0.01977989
  47        -0.02760181
  48         0.00000000
Sym=     3a' 
Ene=    -1.2618
Spin= Beta
Occup=    1.00000
   1         0.00000000
   2         0.00000000
   3        -0.00000000
   4         0.00000000
   5         0.00000000
   6         0.00000000
   7        -0.00000000
   8         0.00000000
   9         0.00000000
  10         0.00000000
  11         0.00000000
  12         0.00000000
  13        -0.00000000
  14         0.00000000
  15        -0.00365578
  16         0.88984425
  17        -0.19679031
  18         0.13557156
  19        -0.01409208
  20         0.00000000
  21        -0.04951988
  22         0.00514861
  23         0.00000000
  24        -0.00478097
  25         0.00000000
  26         0.00000000
  27        -0.01012921
  28         0.00212992
  29        -0.00000000
  30         0.00000000
  31        -0.00000000
  32         0.00000000
  33         0.00000000
  34         0.00000000
  35        -0.00000000
  36        -0.00000000
  37        -0.00000000
  38         0.00000000
  39         0.41466933
  40        -0.20827607
  41        -0.01367687
  42         0.03108089
  43         0.00000000
  44         0.41468177
  45        -0.20828086
  46        -0.01977989
  47        -0.02760181
  48         0.00000000
Sym=     4a' 
Ene=    -0.9829
Spin= Alpha
Occup=    1.00000
   1         0.00000000
   2        -0.00000000
   3        -0.00000000
   4         0.00000000
   5         0.00000000
   6         0.00000000
   7         0.00000000
   8         0.00000000
   9         0.00000000
  10        -0.00000000
  11         0.00000000
  12         0.00000000
  13        -0.00000000
  14        -0.00000000
  15        -0.00000023
  16        -0.00001168
  17        -0.00000179
  18         0.07900560
  19         0.75973968
  20         0.00000000
  21        -0.01889938
  22        -0.18172590
  23         0.00000000
  24        -0.00000027
  25         0.00000000
  26         0.00000000
  27         0.00358893
  28         0.01707214
  29         0.00000000
  30        -0.00000000
  31         0.00000000
  32        -0.00000000
  33         0.00000000
  34        -0.00000000
  35         0.00000000
  36        -0.00000000
  37         0.00000000
  38         0.00000000
  39        -0.55192086
  40         0.24300838
  41         0.01637321
  42        -0.02075072
  43         0.00000000
  44         0.55191763
  45        -0.24300088
  46        -0.02029220
  47        -0.01693659
  48         0.00000000
Sym=     4a' 
Ene=    -0.9829
Spin= Beta
Occup=    1.00000
   1         0.00000000
   2        -0.00000000
   3        -0.00000000
   4         0.00000000
   5         0.00000000
   6         0.00000000
   7         0.00000000
   8         0.00000000
   9         0.00000000
  10        -0.00000000
  11         0.00000000
  12         0.00000000
  13        -0.00000000
  14        -0.00000000
  15        -0.00000023
  16        -0.00001168
  17        -0.00000179
  18         0.07900560
  19         0.75973968
  20         0.00000000
  21        -0.01889938
  22        -0.18172590
  23         0.00000000
  24        -0.00000027
  25         0.00000000
  26         0.00000000
  27         0.00358893
  28         0.01707214
  29         0.00000000
  30        -0.00000000
  31         0.00000000
  32        -0.00000000
  33         0.00000000
  34        -0.00000000
  35         0.00000000
  36        -0.00000000
  37         0.00000000
  38         0.00000000
  39        -0.55192086
  40         0.24300838
  41         0.01637321
  42        -0.02075072
  43         0.00000000
  44         0.55191763
  45        -0.24300088
  46        -0.02029220
  47        -0.01693659
  48         0.00000000
Sym=     5a' 
Ene=    -0.4716
Spin= Alpha
Occup=    1.00000
   1        -0.00927569
   2         0.87573183
   3         0.01599503
   4        -0.00349274
   5         0.00913694
   6         0.00000000
   7         0.02068512
   8        -0.00161167
   9         0.00000000
  10        -0.00303780
  11         0.00000000
  12         0.00000000
  13         0.00198874
  14        -0.00182469
  15         0.00000000
  16        -0.00000000
  17         0.00000000
  18         0.00000000
  19         0.00000000
  20         0.00000000
  21         0.00000000
  22        -0.00000000
  23         0.00000000
  24         0.00000000
  25         0.00000000
  26         0.00000000
  27         0.00000000
  28        -0.00000000
  29         0.15699500
  30        -0.01440798
  31         0.00744920
  32         0.00391720
  33         0.00000000
  34         0.19036973
  35        -0.02247467
  36         0.00941225
  37        -0.00567837
  38         0.00000000
  39        -0.00000000
  40        -0.00000000
  41        -0.00000000
  42         0.00000000
  43         0.00000000
  44         0.00000000
  45        -0.00000000
  46        -0.00000000
  47         0.00000000
  48         0.00000000
Sym=     5a' 
Ene=    -0.4716
Spin= Beta
Occup=    1.00000
   1        -0.00927569
   2         0.87573183
   3         0.01599503
   4        -0.00349274
   5         0.00913694
   6         0.00000000
   7         0.02068512
   8        -0.00161167
   9         0.00000000
  10        -0.00303780
  11         0.00000000
  12         0.00000000
  13         0.00198874
  14        -0.00182469
  15         0.00000000
  16        -0.00000000
  17         0.00000000
  18         0.00000000
  19         0.00000000
  20         0.00000000
  21         0.00000000
  22        -0.00000000
  23         0.00000000
  24         0.00000000
  25         0.00000000
  26         0.00000000
  27         0.00000000
  28        -0.00000000
  29         0.15699500
  30        -0.01440798
  31         0.00744920
  32         0.00391720
  33         0.00000000
  34         0.19036973
  35        -0.02247467
  36         0.00941225
  37        -0.00567837
  38         0.00000000
  39        -0.00000000
  40        -0.00000000
  41        -0.00000000
  42         0.00000000
  43         0.00000000
  44         0.00000000
  45        -0.00000000
  46        -0.00000000
  47         0.00000000
  48         0.00000000
Sym=     6a' 
Ene=    -0.1392
Spin= Alpha
Occup=    1.00000
   1         0.00407554
   2        -0.33851084
   3        -0.16081354
   4        -0.39688402
   5         0.08098060
   6         0.00000000
   7        -0.01966353
   8         0.00265914
   9         0.00000000
  10        -0.01497813
  11         0.00000000
  12         0.00000000
  13         0.00892807
  14        -0.00422029
  15         0.00000000
  16         0.00000000
  17         0.00000000
  18        -0.00000000
  19         0.00000000
  20         0.00000000
  21         0.00000000
  22         0.00000000
  23         0.00000000
  24        -0.00000000
  25         0.00000000
  26         0.00000000
  27         0.00000000
  28         0.00000000
  29         0.36998863
  30         0.07638496
  31         0.00302376
  32         0.00979470
  33         0.00000000
  34         0.44569958
  35         0.09262143
  36         0.00485354
  37        -0.01044694
  38         0.00000000
  39        -0.00000000
  40         0.00000000
  41         0.00000000
  42        -0.00000000
  43         0.00000000
  44        -0.00000000
  45        -0.00000000
  46        -0.00000000
  47         0.00000000
  48         0.00000000
Sym=     6a' 
Ene=    -0.1392
Spin= Beta
Occup=    1.00000
   1         0.00407554
   2        -0.33851084
   3        -0.16081354
   4        -0.39688402
   5         0.08098060
   6         0.00000000
   7        -0.01966353
   8         0.00265914
   9         0.00000000
  10        -0.01497813
  11         0.00000000
  12         0.00000000
  13         0.00892807
  14        -0.00422029
  15         0.00000000
  16         0.00000000
  17         0.00000000
  18        -0.00000000
  19         0.00000000
  20         0.00000000
  21         0.00000000
  22         0.00000000
  23         0.00000000
  24        -0.00000000
  25         0.00000000
  26         0.00000000
  27         0.00000000
  28         0.00000000
  29         0.36998863
  30         0.07638496
  31         0.00302376
  32         0.00979470
  33         0.00000000
  34         0.44569958
  35         0.09262143
  36         0.00485354
  37        -0.01044694
  38         0.00000000
  39        -0.00000000
  40         0.00000000
  41         0.00000000
  42        -0.00000000
  43         0.00000000
  44        -0.00000000
  45        -0.00000000
  46        -0.00000000
  47         0.00000000
  48         0.00000000
Sym=     7a' 
Ene=    -0.0656
Spin= Alpha
Occup=    1.00000
   1         0.00031580
   2         0.02024502
   3         0.00385918
   4         0.02685930
   5         0.48528917
   6         0.00000000
   7         0.00489725
   8         0.06759551
   9         0.00000000
  10         0.00037037
  11         0.00000000
  12         0.00000000
  13        -0.00402738
  14        -0.02563967
  15        -0.00000000
  16        -0.00000000
  17        -0.00000000
  18         0.00000000
  19        -0.00000000
  20         0.00000000
  21         0.00000000
  22         0.00000000
  23         0.00000000
  24        -0.00000000
  25         0.00000000
  26         0.00000000
  27         0.00000000
  28         0.00000000
  29        -0.43402574
  30        -0.23963497
  31        -0.01132939
  32         0.00153106
  33         0.00000000
  34         0.35152297
  35         0.18616983
  36         0.01376135
  37         0.00362608
  38         0.00000000
  39         0.00000000
  40        -0.00000000
  41         0.00000000
  42         0.00000000
  43         0.00000000
  44         0.00000000
  45        -0.00000000
  46        -0.00000000
  47         0.00000000
  48         0.00000000
Sym=     7a' 
Ene=    -0.0656
Spin= Beta
Occup=    1.00000
   1         0.00031580
   2         0.02024502
   3         0.00385918
   4         0.02685930
   5         0.48528917
   6         0.00000000
   7         0.00489725
   8         0.06759551
   9         0.00000000
  10         0.00037037
  11         0.00000000
  12         0.00000000
  13        -0.00402738
  14        -0.02563967
  15        -0.00000000
  16        -0.00000000
  17        -0.00000000
  18         0.00000000
  19        -0.00000000
  20         0.00000000
  21         0.00000000
  22         0.00000000
  23         0.00000000
  24        -0.00000000
  25         0.00000000
  26         0.00000000
  27         0.00000000
  28         0.00000000
  29        -0.43402574
  30        -0.23963497
  31        -0.01132939
  32         0.00153106
  33         0.00000000
  34         0.35152297
  35         0.18616983
  36         0.01376135
  37         0.00362608
  38         0.00000000
  39         0.00000000
  40        -0.00000000
  41         0.00000000
  42         0.00000000
  43         0.00000000
  44         0.00000000
  45        -0.00000000
  46        -0.00000000
  47         0.00000000
  48         0.00000000
Sym=     8a' 
Ene=    -0.3629
Spin= Alpha
Occup=    0.00000
   1         0.00000000
   2        -0.00000000
   3        -0.00000000
   4        -0.00000000
   5        -0.00000000
   6         0.00000000
   7        -0.00000000
   8        -0.00000000
   9         0.00000000
  10        -0.00000000
  11         0.00000000
  12         0.00000000
  13         0.00000000
  14         0.00000000
  15         0.00447934
  16        -0.31835734
  17        -0.20536318
  18         0.71840519
  19        -0.07470990
  20         0.00000000
  21         0.10816766
  22        -0.01125700
  23         0.00000000
  24        -0.00662926
  25         0.00000000
  26         0.00000000
  27        -0.00856314
  28         0.00180118
  29         0.00000000
  30         0.00000000
  31         0.00000000
  32        -0.00000000
  33         0.00000000
  34         0.00000000
  35        -0.00000000
  36         0.00000000
  37         0.00000000
  38         0.00000000
  39         0.26610066
  40        -0.06444426
  41         0.01480594
  42         0.01178773
  43         0.00000000
  44         0.26610533
  45        -0.06443096
  46         0.01206397
  47        -0.01458171
  48         0.00000000
Sym=     8a' 
Ene=    -0.3629
Spin= Beta
Occup=    0.00000
   1         0.00000000
   2        -0.00000000
   3        -0.00000000
   4        -0.00000000
   5        -0.00000000
   6         0.00000000
   7        -0.00000000
   8        -0.00000000
   9         0.00000000
  10        -0.00000000
  11         0.00000000
  12         0.00000000
  13         0.00000000
  14         0.00000000
  15         0.00447934
  16        -0.31835734
  17        -0.20536318
  18         0.71840519
  19        -0.07470990
  20         0.00000000
  21         0.10816766
  22        -0.01125700
  23         0.00000000
  24        -0.00662926
  25         0.00000000
  26         0.00000000
  27        -0.00856314
  28         0.00180118
  29         0.00000000
  30         0.00000000
  31         0.00000000
  32        -0.00000000
  33         0.00000000
  34         0.00000000
  35        -0.00000000
  36         0.00000000
  37         0.00000000
  38         0.00000000
  39         0.26610066
  40        -0.06444426
  41         0.01480594
  42         0.01178773
  43         0.00000000
  44         0.26610533
  45        -0.06443096
  46         0.01206397
  47        -0.01458171
  48         0.00000000
Sym=     9a' 
Ene=    -0.0453
Spin= Alpha
Occup=    0.00000
   1        -0.00000000
   2        -0.00000000
   3         0.00000000
   4        -0.00000000
   5         0.00000000
   6         0.00000000
   7         0.00000000
   8        -0.00000000
   9         0.00000000
  10        -0.00000000
  11         0.00000000
  12         0.00000000
  13         0.00000000
  14         0.00000000
  15         0.01999520
  16        -0.36898971
  17        -1.57989932
  18        -0.22632494
  19         0.02347898
  20         0.00000000
  21        -0.55298917
  22         0.05741050
  23         0.00000000
  24         0.00776872
  25         0.00000000
  26         0.00000000
  27        -0.00388331
  28         0.00081580
  29        -0.00000000
  30         0.00000000
  31         0.00000000
  32         0.00000000
  33         0.00000000
  34        -0.00000000
  35         0.00000000
  36         0.00000000
  37        -0.00000000
  38         0.00000000
  39         0.09765611
  40         1.31417452
  41        -0.00214670
  42         0.00307650
  43         0.00000000
  44         0.09765727
  45         1.31455752
  46        -0.00273392
  47        -0.00256999
  48         0.00000000
Sym=     9a' 
Ene=    -0.0453
Spin= Beta
Occup=    0.00000
   1        -0.00000000
   2        -0.00000000
   3         0.00000000
   4        -0.00000000
   5         0.00000000
   6         0.00000000
   7         0.00000000
   8        -0.00000000
   9         0.00000000
  10        -0.00000000
  11         0.00000000
  12         0.00000000
  13         0.00000000
  14         0.00000000
  15         0.01999520
  16        -0.36898971
  17        -1.57989932
  18        -0.22632494
  19         0.02347898
  20         0.00000000
  21        -0.55298917
  22         0.05741050
  23         0.00000000
  24         0.00776872
  25         0.00000000
  26         0.00000000
  27        -0.00388331
  28         0.00081580
  29        -0.00000000
  30         0.00000000
  31         0.00000000
  32         0.00000000
  33         0.00000000
  34        -0.00000000
  35         0.00000000
  36         0.00000000
  37        -0.00000000
  38         0.00000000
  39         0.09765611
  40         1.31417452
  41        -0.00214670
  42         0.00307650
  43         0.00000000
  44         0.09765727
  45         1.31455752
  46        -0.00273392
  47        -0.00256999
  48         0.00000000
Sym=    10a' 
Ene=     0.0072
Spin= Alpha
Occup=    0.00000
   1         0.00000000
   2         0.00000000
   3        -0.00000000
   4         0.00000000
   5         0.00000000
   6         0.00000000
   7         0.00000000
   8        -0.00000000
   9         0.00000000
  10         0.00000000
  11         0.00000000
  12         0.00000000
  13        -0.00000000
  14        -0.00000000
  15        -0.00000121
  16        -0.00005430
  17        -0.00013396
  18         0.05440160
  19         0.52332142
  20         0.00000000
  21         0.10405729
  22         1.00116983
  23         0.00000000
  24        -0.00000089
  25         0.00000000
  26         0.00000000
  27        -0.00241924
  28        -0.01149606
  29         0.00000000
  30        -0.00000000
  31         0.00000000
  32         0.00000000
  33         0.00000000
  34         0.00000000
  35         0.00000000
  36         0.00000000
  37        -0.00000000
  38         0.00000000
  39         0.13250210
  40         1.74593595
  41         0.00822661
  42         0.00263704
  43         0.00000000
  44        -0.13247422
  45        -1.74568599
  46        -0.00750729
  47         0.00427427
  48         0.00000000
Sym=    10a' 
Ene=     0.0072
Spin= Beta
Occup=    0.00000
   1         0.00000000
   2         0.00000000
   3        -0.00000000
   4         0.00000000
   5         0.00000000
   6         0.00000000
   7         0.00000000
   8        -0.00000000
   9         0.00000000
  10         0.00000000
  11         0.00000000
  12         0.00000000
  13        -0.00000000
  14        -0.00000000
  15        -0.00000121
  16        -0.00005430
  17        -0.00013396
  18         0.05440160
  19         0.52332142
  20         0.00000000
  21         0.10405729
  22         1.00116983
  23         0.00000000
  24        -0.00000089
  25         0.00000000
  26         0.00000000
  27        -0.00241924
  28        -0.01149606
  29         0.00000000
  30        -0.00000000
  31         0.00000000
  32         0.00000000
  33         0.00000000
  34         0.00000000
  35         0.00000000
  36         0.00000000
  37        -0.00000000
  38         0.00000000
  39         0.13250210
  40         1.74593595
  41         0.00822661
  42         0.00263704
  43         0.00000000
  44        -0.13247422
  45        -1.74568599
  46        -0.00750729
  47         0.00427427
  48         0.00000000
Sym=    11a' 
Ene=     0.2962
Spin= Alpha
Occup=    0.00000
   1        -0.00000000
   2         0.00000000
   3        -0.00000000
   4         0.00000000
   5        -0.00000000
   6         0.00000000
   7        -0.00000000
   8        -0.00000000
   9         0.00000000
  10        -0.00000000
  11         0.00000000
  12         0.00000000
  13         0.00000000
  14         0.00000000
  15        -0.00000399
  16        -0.00001651
  17         0.00003314
  18        -0.04751465
  19        -0.45722857
  20         0.00000000
  21         0.18305407
  22         1.76054018
  23         0.00000000
  24         0.00000128
  25         0.00000000
  26         0.00000000
  27        -0.03019107
  28        -0.14359162
  29        -0.00000000
  30         0.00000000
  31        -0.00000000
  32         0.00000000
  33         0.00000000
  34         0.00000000
  35         0.00000000
  36        -0.00000000
  37        -0.00000000
  38         0.00000000
  39         1.06650218
  40        -0.23575636
  41         0.03667779
  42         0.00418105
  43         0.00000000
  44        -1.06650917
  45         0.23573936
  46        -0.03503356
  47         0.01163362
  48         0.00000000
Sym=    11a' 
Ene=     0.2962
Spin= Beta
Occup=    0.00000
   1        -0.00000000
   2         0.00000000
   3        -0.00000000
   4         0.00000000
   5        -0.00000000
   6         0.00000000
   7        -0.00000000
   8        -0.00000000
   9         0.00000000
  10        -0.00000000
  11         0.00000000
  12         0.00000000
  13         0.00000000
  14         0.00000000
  15        -0.00000399
  16        -0.00001651
  17         0.00003314
  18        -0.04751465
  19        -0.45722857
  20         0.00000000
  21         0.18305407
  22         1.76054018
  23         0.00000000
  24         0.00000128
  25         0.00000000
  26         0.00000000
  27        -0.03019107
  28        -0.14359162
  29        -0.00000000
  30         0.00000000
  31        -0.00000000
  32         0.00000000
  33         0.00000000
  34         0.00000000
  35         0.00000000
  36        -0.00000000
  37        -0.00000000
  38         0.00000000
  39         1.06650218