[Molden Format]
[N_Atoms]
                   10
[Atoms] (AU)
C1          1      6          -2.01348429      2.12110419      0.00000000
H2          2      1           0.08297787      2.12110419      0.00000000
H3          3      1          -2.71228611      3.65250045     -1.24965699
H4          4      1          -2.71230501      2.43763332      1.95104774
H5          5      1          -2.71230501      0.27317881     -0.70139075
C6          6      6          -2.01348429    191.09371665      0.00000000
H7          7      1           0.08297787    191.09371665      0.00000000
H8          8      1          -2.71228611    192.62511291     -1.24965699
H9          9      1          -2.71230501    191.41024578      1.95104774
H10        10      1          -2.71230501    189.24579127     -0.70139075
[5D]
[Charge] (Mulliken)
 -0.16650476122553304     
   4.1625928875016482E-002
   4.1626410011865178E-002
   4.1626216964723795E-002
   4.1626205373848424E-002
 -0.16650476122590874     
   4.1625928871197204E-002
   4.1626410026368021E-002
   4.1626216960675033E-002
   4.1626205367583324E-002
[GTO] (AU)
   1
   s   9
  6.665000000E+03  6.920001793E-04
  1.000000000E+03  5.329001381E-03
  2.280000000E+02  2.707700701E-02
  6.471000000E+01  1.017180264E-01
  2.106000000E+01  2.747400712E-01
  7.495000000E+00  4.485641162E-01
  2.797000000E+00  2.850740738E-01
  5.215000000E-01  1.520400394E-02
  1.596000000E-01 -3.191000827E-03
   s   9
  6.665000000E+03 -1.460000642E-04
  1.000000000E+03 -1.154000508E-03
  2.280000000E+02 -5.725002519E-03
  6.471000000E+01 -2.331201026E-02
  2.106000000E+01 -6.395502813E-02
  7.495000000E+00 -1.499810660E-01
  2.797000000E+00 -1.272620560E-01
  5.215000000E-01  5.445292395E-01
  1.596000000E-01  5.804962554E-01
   s   1
  1.596000000E-01  1.000000000E+00
   p   4
  9.439000000E+00  3.810902127E-02
  2.002000000E+00  2.094801169E-01
  5.456000000E-01  5.085572839E-01
  1.517000000E-01  4.688422617E-01
   p   1
  1.517000000E-01  1.000000000E+00
   d   1
  5.500000000E-01  1.000000000E+00
 
   2
   s   4
  1.301000000E+01  1.968498999E-02
  1.962000000E+00  1.379769298E-01
  4.446000000E-01  4.781477569E-01
  1.220000000E-01  5.012397451E-01
   s   1
  1.220000000E-01  1.000000000E+00
   p   1
  7.270000000E-01  1.000000000E+00
 
   3
   s   4
  1.301000000E+01  1.968498999E-02
  1.962000000E+00  1.379769298E-01
  4.446000000E-01  4.781477569E-01
  1.220000000E-01  5.012397451E-01
   s   1
  1.220000000E-01  1.000000000E+00
   p   1
  7.270000000E-01  1.000000000E+00
 
   4
   s   4
  1.301000000E+01  1.968498999E-02
  1.962000000E+00  1.379769298E-01
  4.446000000E-01  4.781477569E-01
  1.220000000E-01  5.012397451E-01
   s   1
  1.220000000E-01  1.000000000E+00
   p   1
  7.270000000E-01  1.000000000E+00
 
   5
   s   4
  1.301000000E+01  1.968498999E-02
  1.962000000E+00  1.379769298E-01
  4.446000000E-01  4.781477569E-01
  1.220000000E-01  5.012397451E-01
   s   1
  1.220000000E-01  1.000000000E+00
   p   1
  7.270000000E-01  1.000000000E+00
 
   6
   s   9
  6.665000000E+03  6.920001793E-04
  1.000000000E+03  5.329001381E-03
  2.280000000E+02  2.707700701E-02
  6.471000000E+01  1.017180264E-01
  2.106000000E+01  2.747400712E-01
  7.495000000E+00  4.485641162E-01
  2.797000000E+00  2.850740738E-01
  5.215000000E-01  1.520400394E-02
  1.596000000E-01 -3.191000827E-03
   s   9
  6.665000000E+03 -1.460000642E-04
  1.000000000E+03 -1.154000508E-03
  2.280000000E+02 -5.725002519E-03
  6.471000000E+01 -2.331201026E-02
  2.106000000E+01 -6.395502813E-02
  7.495000000E+00 -1.499810660E-01
  2.797000000E+00 -1.272620560E-01
  5.215000000E-01  5.445292395E-01
  1.596000000E-01  5.804962554E-01
   s   1
  1.596000000E-01  1.000000000E+00
   p   4
  9.439000000E+00  3.810902127E-02
  2.002000000E+00  2.094801169E-01
  5.456000000E-01  5.085572839E-01
  1.517000000E-01  4.688422617E-01
   p   1
  1.517000000E-01  1.000000000E+00
   d   1
  5.500000000E-01  1.000000000E+00
 
   7
   s   4
  1.301000000E+01  1.968498999E-02
  1.962000000E+00  1.379769298E-01
  4.446000000E-01  4.781477569E-01
  1.220000000E-01  5.012397451E-01
   s   1
  1.220000000E-01  1.000000000E+00
   p   1
  7.270000000E-01  1.000000000E+00
 
   8
   s   4
  1.301000000E+01  1.968498999E-02
  1.962000000E+00  1.379769298E-01
  4.446000000E-01  4.781477569E-01
  1.220000000E-01  5.012397451E-01
   s   1
  1.220000000E-01  1.000000000E+00
   p   1
  7.270000000E-01  1.000000000E+00
 
   9
   s   4
  1.301000000E+01  1.968498999E-02
  1.962000000E+00  1.379769298E-01
  4.446000000E-01  4.781477569E-01
  1.220000000E-01  5.012397451E-01
   s   1
  1.220000000E-01  1.000000000E+00
   p   1
  7.270000000E-01  1.000000000E+00
 
  10
   s   4
  1.301000000E+01  1.968498999E-02
  1.962000000E+00  1.379769298E-01
  4.446000000E-01  4.781477569E-01
  1.220000000E-01  5.012397451E-01
   s   1
  1.220000000E-01  1.000000000E+00
   p   1
  7.270000000E-01  1.000000000E+00
 
[MO]
Sym=     1a  
Ene=   -11.2250
Spin= Alpha
Occup=    2.00000
   1         1.00156937
   2         0.00886585
   3        -0.00987155
   4         0.00000000
   5        -0.00000000
   6         0.00000000
   7        -0.00000001
   8         0.00000000
   9        -0.00000000
  10         0.00000000
  11        -0.00000001
  12        -0.00000001
  13        -0.00000001
  14         0.00000001
  15         0.00003063
  16         0.00116324
  17         0.00042517
  18        -0.00000000
  19         0.00000000
  20         0.00003062
  21         0.00116325
  22        -0.00014172
  23         0.00031057
  24        -0.00025343
  25         0.00003062
  26         0.00116325
  27        -0.00014172
  28         0.00006420
  29         0.00039568
  30         0.00003062
  31         0.00116325
  32        -0.00014172
  33        -0.00037476
  34        -0.00014225
  35         0.00000000
  36         0.00000000
  37         0.00000000
  38         0.00000000
  39         0.00000000
  40         0.00000000
  41         0.00000000
  42         0.00000000
  43         0.00000000
  44         0.00000000
  45         0.00000000
  46         0.00000000
  47         0.00000000
  48         0.00000000
  49         0.00000000
  50         0.00000000
  51         0.00000000
  52         0.00000000
  53         0.00000000
  54         0.00000000
  55         0.00000000
  56         0.00000000
  57         0.00000000
  58         0.00000000
  59         0.00000000
  60         0.00000000
  61         0.00000000
  62         0.00000000
  63         0.00000000
  64         0.00000000
  65         0.00000000
  66         0.00000000
  67         0.00000000
  68         0.00000000
Sym=     2a  
Ene=   -11.2250
Spin= Alpha
Occup=    2.00000
   1         0.00000000
   2         0.00000000
   3         0.00000000
   4         0.00000000
   5         0.00000000
   6         0.00000000
   7         0.00000000
   8         0.00000000
   9         0.00000000
  10         0.00000000
  11         0.00000000
  12         0.00000000
  13         0.00000000
  14         0.00000000
  15         0.00000000
  16         0.00000000
  17         0.00000000
  18         0.00000000
  19         0.00000000
  20         0.00000000
  21         0.00000000
  22         0.00000000
  23         0.00000000
  24         0.00000000
  25         0.00000000
  26         0.00000000
  27         0.00000000
  28         0.00000000
  29         0.00000000
  30         0.00000000
  31         0.00000000
  32         0.00000000
  33         0.00000000
  34         0.00000000
  35         1.00156937
  36         0.00886585
  37        -0.00987155
  38         0.00000000
  39        -0.00000000
  40         0.00000000
  41        -0.00000001
  42         0.00000000
  43        -0.00000000
  44         0.00000000
  45        -0.00000001
  46        -0.00000001
  47        -0.00000001
  48         0.00000001
  49         0.00003063
  50         0.00116324
  51         0.00042517
  52        -0.00000000
  53         0.00000000
  54         0.00003062
  55         0.00116325
  56        -0.00014172
  57         0.00031057
  58        -0.00025343
  59         0.00003062
  60         0.00116325
  61        -0.00014172
  62         0.00006420
  63         0.00039568
  64         0.00003062
  65         0.00116325
  66        -0.00014172
  67        -0.00037476
  68        -0.00014225
Sym=     3a  
Ene=    -0.9341
Spin= Alpha
Occup=    2.00000
   1        -0.02668031
   2         0.74088766
   3        -0.17902778
   4        -0.00000022
   5        -0.00000049
   6         0.00000036
   7         0.00000001
   8         0.00000026
   9        -0.00000019
  10         0.00000002
  11        -0.00000001
  12         0.00000003
  13        -0.00000003
  14         0.00000001
  15         0.30822087
  16        -0.12614556
  17        -0.02556869
  18         0.00000000
  19        -0.00000000
  20         0.30822149
  21        -0.12614602
  22         0.00852271
  23        -0.01867714
  24         0.01524100
  25         0.30822267
  26        -0.12614652
  27         0.00852295
  28        -0.00386049
  29        -0.02379534
  30         0.30822274
  31        -0.12614655
  32         0.00852295
  33         0.02253764
  34         0.00855433
  35         0.00000000
  36         0.00000000
  37         0.00000000
  38         0.00000000
  39         0.00000000
  40         0.00000000
  41         0.00000000
  42         0.00000000
  43         0.00000000
  44         0.00000000
  45         0.00000000
  46         0.00000000
  47         0.00000000
  48         0.00000000
  49         0.00000000
  50         0.00000000
  51         0.00000000
  52         0.00000000
  53         0.00000000
  54         0.00000000
  55         0.00000000
  56         0.00000000
  57         0.00000000
  58         0.00000000
  59         0.00000000
  60         0.00000000
  61         0.00000000
  62         0.00000000
  63         0.00000000
  64         0.00000000
  65         0.00000000
  66         0.00000000
  67         0.00000000
  68         0.00000000
Sym=     4a  
Ene=    -0.9341
Spin= Alpha
Occup=    2.00000
   1         0.00000000
   2         0.00000000
   3         0.00000000
   4         0.00000000
   5         0.00000000
   6         0.00000000
   7         0.00000000
   8         0.00000000
   9         0.00000000
  10         0.00000000
  11         0.00000000
  12         0.00000000
  13         0.00000000
  14         0.00000000
  15         0.00000000
  16         0.00000000
  17         0.00000000
  18         0.00000000
  19         0.00000000
  20         0.00000000
  21         0.00000000
  22         0.00000000
  23         0.00000000
  24         0.00000000
  25         0.00000000
  26         0.00000000
  27         0.00000000
  28         0.00000000
  29         0.00000000
  30         0.00000000
  31         0.00000000
  32         0.00000000
  33         0.00000000
  34         0.00000000
  35        -0.02668031
  36         0.74088766
  37        -0.17902778
  38        -0.00000022
  39        -0.00000049
  40         0.00000036
  41         0.00000001
  42         0.00000026
  43        -0.00000019
  44         0.00000002
  45        -0.00000001
  46         0.00000003
  47        -0.00000003
  48         0.00000001
  49         0.30822087
  50        -0.12614556
  51        -0.02556869
  52         0.00000000
  53        -0.00000000
  54         0.30822149
  55        -0.12614602
  56         0.00852271
  57        -0.01867714
  58         0.01524100
  59         0.30822267
  60        -0.12614652
  61         0.00852295
  62        -0.00386049
  63        -0.02379534
  64         0.30822274
  65        -0.12614655
  66         0.00852295
  67         0.02253764
  68         0.00855433
Sym=     5a  
Ene=    -0.5377
Spin= Alpha
Occup=    2.00000
   1        -0.00000001
   2        -0.00000027
   3        -0.00000058
   4        -0.25788590
   5        -0.44547685
   6         0.36168789
   7         0.03829329
   8         0.06614855
   9        -0.05370678
  10         0.00890927
  11        -0.00888743
  12         0.01954512
  13        -0.00752968
  14         0.01094630
  15        -0.26987735
  16         0.06752893
  17         0.00921318
  18        -0.00896957
  19         0.00728250
  20        -0.47620112
  21         0.11915566
  22        -0.01366525
  23         0.00959812
  24        -0.00786919
  25         0.37182576
  26        -0.09303886
  27         0.00142336
  28        -0.01196623
  29        -0.01118841
  30         0.37425156
  31        -0.09364584
  32         0.00146652
  33         0.00863919
  34         0.01396603
  35         0.00000000
  36         0.00000000
  37         0.00000000
  38         0.00000000
  39         0.00000000
  40         0.00000000
  41         0.00000000
  42         0.00000000
  43         0.00000000
  44         0.00000000
  45         0.00000000
  46         0.00000000
  47         0.00000000
  48         0.00000000
  49         0.00000000
  50         0.00000000
  51         0.00000000
  52         0.00000000
  53         0.00000000
  54         0.00000000
  55         0.00000000
  56         0.00000000
  57         0.00000000
  58         0.00000000
  59         0.00000000
  60         0.00000000
  61         0.00000000
  62         0.00000000
  63         0.00000000
  64         0.00000000
  65         0.00000000
  66         0.00000000
  67         0.00000000
  68         0.00000000
Sym=     6a  
Ene=    -0.5377
Spin= Alpha
Occup=    2.00000
   1         0.00000000
   2         0.00000000
   3         0.00000000
   4         0.00000000
   5         0.00000000
   6         0.00000000
   7         0.00000000
   8         0.00000000
   9         0.00000000
  10         0.00000000
  11         0.00000000
  12         0.00000000
  13         0.00000000
  14         0.00000000
  15         0.00000000
  16         0.00000000
  17         0.00000000
  18         0.00000000
  19         0.00000000
  20         0.00000000
  21         0.00000000
  22         0.00000000
  23         0.00000000
  24         0.00000000
  25         0.00000000
  26         0.00000000
  27         0.00000000
  28         0.00000000
  29         0.00000000
  30         0.00000000
  31         0.00000000
  32         0.00000000
  33         0.00000000
  34         0.00000000
  35         0.00000001
  36         0.00000027
  37         0.00000058
  38         0.25788609
  39         0.44547679
  40        -0.36168783
  41        -0.03829332
  42        -0.06614854
  43         0.05370677
  44        -0.00890927
  45         0.00888742
  46        -0.01954512
  47         0.00752969
  48        -0.01094630
  49         0.26987754
  50        -0.06752898
  51        -0.00921319
  52         0.00896957
  53        -0.00728250
  54         0.47620097
  55        -0.11915562
  56         0.01366525
  57        -0.00959811
  58         0.00786919
  59        -0.37182577
  60         0.09303886
  61        -0.00142335
  62         0.01196623
  63         0.01118841
  64        -0.37425159
  65         0.09364585
  66        -0.00146651
  67        -0.00863920
  68        -0.01396603
Sym=     7a  
Ene=    -0.5377
Spin= Alpha
Occup=    2.00000
   1         0.00000000
   2         0.00000002
   3         0.00000002
   4         0.00427541
   5         0.39503353
   6         0.48959573
   7        -0.00063485
   8        -0.05865758
   9        -0.07269889
  10         0.01847746
  11        -0.01203049
  12        -0.00426593
  13         0.01087808
  14        -0.00970688
  15         0.00447425
  16        -0.00111954
  17        -0.00015274
  18         0.00795387
  19         0.00985784
  20        -0.00492262
  21         0.00123174
  22        -0.00000150
  23         0.00814580
  24         0.00970122
  25         0.53775334
  26        -0.13455648
  27         0.00965423
  28         0.00362002
  29        -0.01685554
  30        -0.53730493
  31         0.13444429
  32        -0.00947408
  33        -0.01732650
  34         0.00026256
  35         0.00000000
  36         0.00000000
  37         0.00000000
  38         0.00000000
  39         0.00000000
  40         0.00000000
  41         0.00000000
  42         0.00000000
  43         0.00000000
  44         0.00000000
  45         0.00000000
  46         0.00000000
  47         0.00000000
  48         0.00000000
  49         0.00000000
  50         0.00000000
  51         0.00000000
  52         0.00000000
  53         0.00000000
  54         0.00000000
  55         0.00000000
  56         0.00000000
  57         0.00000000
  58         0.00000000
  59         0.00000000
  60         0.00000000
  61         0.00000000
  62         0.00000000
  63         0.00000000
  64         0.00000000
  65         0.00000000
  66         0.00000000
  67         0.00000000
  68         0.00000000
Sym=     8a  
Ene=    -0.5377
Spin= Alpha
Occup=    2.00000
   1         0.00000000
   2         0.00000000
   3         0.00000000
   4         0.00000000
   5         0.00000000
   6         0.00000000
   7         0.00000000
   8         0.00000000
   9         0.00000000
  10         0.00000000
  11         0.00000000
  12         0.00000000
  13         0.00000000
  14         0.00000000
  15         0.00000000
  16         0.00000000
  17         0.00000000
  18         0.00000000
  19         0.00000000
  20         0.00000000
  21         0.00000000
  22         0.00000000
  23         0.00000000
  24         0.00000000
  25         0.00000000
  26         0.00000000
  27         0.00000000
  28         0.00000000
  29         0.00000000
  30         0.00000000
  31         0.00000000
  32         0.00000000
  33         0.00000000
  34         0.00000000
  35         0.00000000
  36         0.00000002
  37         0.00000002
  38         0.00427555
  39         0.39503347
  40         0.48959577
  41        -0.00063487
  42        -0.05865758
  43        -0.07269890
  44         0.01847745
  45        -0.01203049
  46        -0.00426592
  47         0.01087809
  48        -0.00970688
  49         0.00447440
  50        -0.00111958
  51        -0.00015275
  52         0.00795387
  53         0.00985785
  54        -0.00492275
  55         0.00123177
  56        -0.00000150
  57         0.00814581
  58         0.00970121
  59         0.53775333
  60        -0.13455648
  61         0.00965423
  62         0.00362002
  63        -0.01685554
  64        -0.53730494
  65         0.13444429
  66        -0.00947408
  67        -0.01732650
  68         0.00026256
Sym=     9a  
Ene=    -0.5377
Spin= Alpha
Occup=    2.00000
   1        -0.00000002
   2         0.00000069
   3        -0.00000032
   4        -0.57380252
   5         0.20315556
   6        -0.15890664
   7         0.08520161
   8        -0.03016575
   9         0.02359541
  10         0.01081133
  11         0.00390455
  12        -0.00881603
  13        -0.02195751
  14        -0.00499181
  15        -0.60048776
  16         0.15025292
  17         0.02049962
  18         0.00409047
  19        -0.00319953
  20         0.45458524
  21        -0.11374559
  22        -0.00346526
  23        -0.01363428
  24         0.01126430
  25         0.07750089
  26        -0.01939213
  27        -0.01017441
  28         0.00346587
  29        -0.00704947
  30         0.06840041
  31        -0.01711503
  32        -0.01033634
  33         0.00730874
  34        -0.00197801
  35         0.00000000
  36         0.00000000
  37         0.00000000
  38         0.00000000
  39         0.00000000
  40         0.00000000
  41         0.00000000
  42         0.00000000
  43         0.00000000
  44         0.00000000
  45         0.00000000
  46         0.00000000
  47         0.00000000
  48         0.00000000
  49         0.00000000
  50         0.00000000
  51         0.00000000
  52         0.00000000
  53         0.00000000
  54         0.00000000
  55         0.00000000
  56         0.00000000
  57         0.00000000
  58         0.00000000
  59         0.00000000
  60         0.00000000
  61         0.00000000
  62         0.00000000
  63         0.00000000
  64         0.00000000
  65         0.00000000
  66         0.00000000
  67         0.00000000
  68         0.00000000
Sym=    10a  
Ene=    -0.5377
Spin= Alpha
Occup=    2.00000
   1         0.00000000
   2         0.00000000
   3         0.00000000
   4         0.00000000
   5         0.00000000
   6         0.00000000
   7         0.00000000
   8         0.00000000
   9         0.00000000
  10         0.00000000
  11         0.00000000
  12         0.00000000
  13         0.00000000
  14         0.00000000
  15         0.00000000
  16         0.00000000
  17         0.00000000
  18         0.00000000
  19         0.00000000
  20         0.00000000
  21         0.00000000
  22         0.00000000
  23         0.00000000
  24         0.00000000
  25         0.00000000
  26         0.00000000
  27         0.00000000
  28         0.00000000
  29         0.00000000
  30         0.00000000
  31         0.00000000
  32         0.00000000
  33         0.00000000
  34         0.00000000
  35         0.00000002
  36        -0.00000069
  37         0.00000032
  38         0.57380243
  39        -0.20315580
  40         0.15890663
  41        -0.08520160
  42         0.03016579
  43        -0.02359541
  44        -0.01081133
  45        -0.00390454
  46         0.00881603
  47         0.02195751
  48         0.00499181
  49         0.60048768
  50        -0.15025289
  51        -0.02049962
  52        -0.00409047
  53         0.00319953
  54        -0.45458540
  55         0.11374563
  56         0.00346526
  57         0.01363428
  58        -0.01126430
  59        -0.07750091
  60         0.01939214
  61         0.01017441
  62        -0.00346587
  63         0.00704947
  64        -0.06840015
  65         0.01711496
  66         0.01033634
  67        -0.00730873
  68         0.00197802
Sym=    11a  
Ene=     0.1905
Spin= Alpha
Occup=    0.00000
   1         0.09692230
   2        -0.15725276
   3        -2.21056139
   4        -0.00000147
   5        -0.00000050
   6         0.00000037
   7        -0.00000356
   8        -0.00000029
   9         0.00000022
  10        -0.00000002
  11         0.00000023
  12         0.00000024
  13         0.00000013
  14        -0.00000028
  15         0.02347403
  16         0.82442683
  17        -0.01315235
  18         0.00000004
  19        -0.00000003
  20         0.02347411
  21         0.82442558
  22         0.00438411
  23        -0.00960734
  24         0.00783983
  25         0.02347358
  26         0.82442509
  27         0.00438413
  28        -0.00198588
  29        -0.01224009
  30         0.02347355
  31         0.82442506
  32         0.00438413
  33         0.01159312
  34         0.00440035
  35         0.00000000
  36         0.00000000
  37         0.00000000
  38         0.00000000
  39         0.00000000
  40         0.00000000
  41         0.00000000
  42         0.00000000
  43         0.00000000
  44         0.00000000
  45         0.00000000
  46         0.00000000
  47         0.00000000
  48         0.00000000
  49         0.00000000
  50         0.00000000
  51         0.00000000
  52         0.00000000
  53         0.00000000
  54         0.00000000
  55         0.00000000
  56         0.00000000
  57         0.00000000
  58         0.00000000
  59         0.00000000
  60         0.00000000
  61         0.00000000
  62         0.00000000
  63         0.00000000
  64         0.00000000
  65         0.00000000
  66         0.00000000
  67         0.00000000
  68         0.00000000
Sym=    12a  
Ene=     0.1905
Spin= Alpha
Occup=    0.00000
   1         0.00000000
   2         0.00000000
   3         0.00000000
   4         0.00000000
   5         0.00000000
   6         0.00000000
   7         0.00000000
   8         0.00000000
   9         0.00000000
  10         0.00000000
  11         0.00000000
  12         0.00000000
  13         0.00000000
  14         0.00000000
  15         0.00000000
  16         0.00000000
  17         0.00000000
  18         0.00000000
  19         0.00000000
  20         0.00000000
  21         0.00000000
  22         0.00000000
  23         0.00000000
  24         0.00000000
  25         0.00000000
  26         0.00000000
  27         0.00000000
  28         0.00000000
  29         0.00000000
  30         0.00000000
  31         0.00000000
  32         0.00000000
  33         0.00000000
  34         0.00000000
  35         0.09692230
  36        -0.15725276
  37        -2.21056139
  38        -0.00000147
  39        -0.00000050
  40         0.00000037
  41        -0.00000356
  42        -0.00000029
  43         0.00000022
  44        -0.00000002
  45         0.00000023
  46         0.00000024
  47         0.00000013
  48        -0.00000028
  49         0.02347403
  50         0.82442683
  51        -0.01315235
  52         0.00000004
  53        -0.00000003
  54         0.02347411
  55         0.82442558
  56         0.00438411
  57        -0.00960734
  58         0.00783983
  59         0.02347358
  60         0.82442509
  61         0.00438413
  62        -0.00198588
  63        -0.01224009
  64         0.02347355
  65         0.82442506
  66         0.00438413
  67         0.01159312
  68         0.00440035
Sym=    13a  
Ene=     0.2710
Spin= Alpha
Occup=    0.00000
   1         0.00000004
   2        -0.00000085
   3        -0.00000532
   4         0.41440275
   5        -0.13866266
   6         0.11079955
   7         1.08679558
   8        -0.36365121
   9         0.29057855
  10        -0.00901482
  11        -0.00314601
  12         0.00699702
  13         0.01832949
  14         0.00393714
  15        -0.08764440
  16        -1.97756292
  17         0.02749761
  18        -0.00017339
  19         0.00013855
  20         0.06460552
  21         1.45771267
  22         0.00714721
  23        -0.01470033
  24         0.01199289
  25         0.01183469
  26         0.26702973
  27         0.00173289
  28        -0.00072360
  29        -0.00325167
  30         0.01120515
  31         0.25282572
  32         0.00166829
  33         0.00286679
  34         0.00129267
  35         0.00000000
  36         0.00000000
  37         0.00000000
  38         0.00000000
  39         0.00000000
  40         0.00000000
  41         0.00000000
  42         0.00000000
  43         0.00000000
  44         0.00000000
  45         0.00000000
  46         0.00000000
  47         0.00000000
  48         0.00000000
  49         0.00000000
  50         0.00000000
  51         0.00000000
  52         0.00000000
  53         0.00000000
  54         0.00000000
  55         0.00000000
  56         0.00000000
  57         0.00000000
  58         0.00000000
  59         0.00000000
  60         0.00000000
  61         0.00000000
  62         0.00000000
  63         0.00000000
  64         0.00000000
  65         0.00000000
  66         0.00000000
  67         0.00000000
  68         0.00000000
Sym=    14a  
Ene=     0.2710
Spin= Alpha
Occup=    0.00000
   1         0.00000000
   2         0.00000000
   3         0.00000000
   4         0.00000000
   5         0.00000000
   6         0.00000000
   7         0.00000000
   8         0.00000000
   9         0.00000000
  10         0.00000000
  11         0.00000000
  12         0.00000000
  13         0.00000000
  14         0.00000000
  15         0.00000000
  16         0.00000000
  17         0.00000000
  18         0.00000000
  19         0.00000000
  20         0.00000000
  21         0.00000000
  22         0.00000000
  23         0.00000000
  24         0.00000000
  25         0.00000000
  26         0.00000000
  27         0.00000000
  28         0.00000000
  29         0.00000000
  30         0.00000000
  31         0.00000000
  32         0.00000000
  33         0.00000000
  34         0.00000000
  35         0.00000004
  36        -0.00000085
  37        -0.00000532
  38         0.41440560
  39        -0.13865769
  40         0.11079514
  41         1.08680303
  42        -0.36363818
  43         0.29056699
  44        -0.00901495
  45        -0.00314588
  46         0.00699676
  47         0.01832958
  48         0.00393700
  49        -0.08764500
  50        -1.97757648
  51         0.02749780
  52        -0.00017339
  53         0.00013855
  54         0.06460440
  55         1.45768733
  56         0.00714710
  57        -0.01470008
  58         0.01199268
  59         0.01183560
  60         0.26705024
  61         0.00173298
  62        -0.00072363
  63        -0.00325193
  64         0.01120597
  65         0.25284411
  66         0.00166838
  67         0.00286702
  68         0.00129275
Sym=    15a  
Ene=     0.2710
Spin= Alpha
Occup=    0.00000
   1         0.00000017
   2         0.00000003
   3        -0.00000823
   4         0.17704812
   5         0.30300840
   6        -0.28297170
   7         0.46432353
   8         0.79466570
   9        -0.74211720
  10        -0.00818186
  11         0.00803531
  12        -0.01605192
  13         0.00533113
  14        -0.00860430
  15        -0.03744194
  16        -0.84488436
  17         0.01174796
  18         0.00037879
  19        -0.00035377
  20        -0.06999961
  21        -1.57954627
  22        -0.00696154
  23         0.01612002
  24        -0.01319901
  25         0.05849800
  26         1.32002113
  27         0.00622429
  28        -0.00234012
  29        -0.01711361
  30         0.04894287
  31         1.10441892
  32         0.00524382
  33         0.01366012
  34         0.00468711
  35         0.00000000
  36         0.00000000
  37         0.00000000
  38         0.00000000
  39         0.00000000
  40         0.00000000
  41         0.00000000
  42         0.00000000
  43         0.00000000
  44         0.00000000
  45         0.00000000
  46         0.00000000
  47         0.00000000
  48         0.00000000
  49         0.00000000
  50         0.00000000
  51         0.00000000
  52         0.00000000
  53         0.00000000
  54         0.00000000