[Molden Format]
[N_Atoms]
                    6
[Atoms] (AU)
C1          1      6        -190.62215440      2.98674993      0.00000000
C2          2      6          -1.03572109      2.72640237      0.00000000
H3          3      1        -193.71892419      1.42540152      0.00000000
H4          4      1        -193.37183819      4.76305470      0.00000000
H5          5      1          -0.17576343      0.95009760      0.00000000
H6          6      1           0.17132257      4.28775078      0.00000000
[5D]
[Charge] (Mulliken)
   1.7208251155914844E-002
 -0.12081217232387864     
  -1.2787280472058127E-002
  -4.4209706840754315E-003
   6.0406378483380152E-002
   6.0405793840360600E-002
[GTO] (AU)
   1
   s   9
  6.665000000E+03  6.920001793E-04
  1.000000000E+03  5.329001381E-03
  2.280000000E+02  2.707700701E-02
  6.471000000E+01  1.017180264E-01
  2.106000000E+01  2.747400712E-01
  7.495000000E+00  4.485641162E-01
  2.797000000E+00  2.850740738E-01
  5.215000000E-01  1.520400394E-02
  1.596000000E-01 -3.191000827E-03
   s   9
  6.665000000E+03 -1.460000642E-04
  1.000000000E+03 -1.154000508E-03
  2.280000000E+02 -5.725002519E-03
  6.471000000E+01 -2.331201026E-02
  2.106000000E+01 -6.395502813E-02
  7.495000000E+00 -1.499810660E-01
  2.797000000E+00 -1.272620560E-01
  5.215000000E-01  5.445292395E-01
  1.596000000E-01  5.804962554E-01
   s   1
  1.596000000E-01  1.000000000E+00
   p   4
  9.439000000E+00  3.810902127E-02
  2.002000000E+00  2.094801169E-01
  5.456000000E-01  5.085572839E-01
  1.517000000E-01  4.688422617E-01
   p   1
  1.517000000E-01  1.000000000E+00
   d   1
  5.500000000E-01  1.000000000E+00
 
   2
   s   9
  6.665000000E+03  6.920001793E-04
  1.000000000E+03  5.329001381E-03
  2.280000000E+02  2.707700701E-02
  6.471000000E+01  1.017180264E-01
  2.106000000E+01  2.747400712E-01
  7.495000000E+00  4.485641162E-01
  2.797000000E+00  2.850740738E-01
  5.215000000E-01  1.520400394E-02
  1.596000000E-01 -3.191000827E-03
   s   9
  6.665000000E+03 -1.460000642E-04
  1.000000000E+03 -1.154000508E-03
  2.280000000E+02 -5.725002519E-03
  6.471000000E+01 -2.331201026E-02
  2.106000000E+01 -6.395502813E-02
  7.495000000E+00 -1.499810660E-01
  2.797000000E+00 -1.272620560E-01
  5.215000000E-01  5.445292395E-01
  1.596000000E-01  5.804962554E-01
   s   1
  1.596000000E-01  1.000000000E+00
   p   4
  9.439000000E+00  3.810902127E-02
  2.002000000E+00  2.094801169E-01
  5.456000000E-01  5.085572839E-01
  1.517000000E-01  4.688422617E-01
   p   1
  1.517000000E-01  1.000000000E+00
   d   1
  5.500000000E-01  1.000000000E+00
 
   3
   s   4
  1.301000000E+01  1.968498999E-02
  1.962000000E+00  1.379769298E-01
  4.446000000E-01  4.781477569E-01
  1.220000000E-01  5.012397451E-01
   s   1
  1.220000000E-01  1.000000000E+00
   p   1
  7.270000000E-01  1.000000000E+00
 
   4
   s   4
  1.301000000E+01  1.968498999E-02
  1.962000000E+00  1.379769298E-01
  4.446000000E-01  4.781477569E-01
  1.220000000E-01  5.012397451E-01
   s   1
  1.220000000E-01  1.000000000E+00
   p   1
  7.270000000E-01  1.000000000E+00
 
   5
   s   4
  1.301000000E+01  1.968498999E-02
  1.962000000E+00  1.379769298E-01
  4.446000000E-01  4.781477569E-01
  1.220000000E-01  5.012397451E-01
   s   1
  1.220000000E-01  1.000000000E+00
   p   1
  7.270000000E-01  1.000000000E+00
 
   6
   s   4
  1.301000000E+01  1.968498999E-02
  1.962000000E+00  1.379769298E-01
  4.446000000E-01  4.781477569E-01
  1.220000000E-01  5.012397451E-01
   s   1
  1.220000000E-01  1.000000000E+00
   p   1
  7.270000000E-01  1.000000000E+00
 
[MO]
Sym=     1a' 
Ene=   -11.3960
Spin= Alpha
Occup=    1.00000
   1         1.00074034
   2         0.00498396
   3        -0.00429304
   4        -0.00184844
   5         0.00029075
   6         0.00000000
   7         0.00218290
   8        -0.00028713
   9         0.00000000
  10        -0.00089414
  11         0.00000000
  12         0.00000000
  13        -0.00025305
  14         0.00008489
  15        -0.00000000
  16        -0.00000000
  17         0.00000000
  18         0.00000000
  19         0.00000000
  20         0.00000000
  21        -0.00000000
  22         0.00000000
  23         0.00000000
  24        -0.00000000
  25         0.00000000
  26         0.00000000
  27         0.00000000
  28         0.00000000
  29         0.00044519
  30         0.00042245
  31         0.00017251
  32         0.00006069
  33         0.00000000
  34         0.00049814
  35         0.00051704
  36         0.00008174
  37        -0.00002771
  38         0.00000000
  39        -0.00000000
  40         0.00000000
  41        -0.00000000
  42         0.00000000
  43         0.00000000
  44        -0.00000000
  45        -0.00000000
  46        -0.00000000
  47         0.00000000
  48         0.00000000
Sym=     1a' 
Ene=   -11.3630
Spin= Beta
Occup=    1.00000
   1         0.99954410
   2        -0.00454839
   3         0.00216146
   4        -0.00163957
   5         0.00024746
   6         0.00000000
   7         0.00191970
   8        -0.00024986
   9         0.00000000
  10         0.00024525
  11         0.00000000
  12         0.00000000
  13        -0.00002074
  14        -0.00005296
  15        -0.00000000
  16        -0.00000000
  17         0.00000000
  18        -0.00000000
  19         0.00000000
  20         0.00000000
  21        -0.00000000
  22         0.00000000
  23         0.00000000
  24        -0.00000000
  25         0.00000000
  26         0.00000000
  27         0.00000000
  28         0.00000000
  29         0.00041334
  30         0.00031287
  31         0.00016937
  32         0.00005310
  33         0.00000000
  34         0.00048664
  35         0.00036522
  36         0.00009760
  37        -0.00002726
  38         0.00000000
  39        -0.00000000
  40         0.00000000
  41        -0.00000000
  42         0.00000000
  43         0.00000000
  44        -0.00000000
  45        -0.00000000
  46        -0.00000000
  47         0.00000000
  48         0.00000000
Sym=     2a' 
Ene=   -11.2660
Spin= Alpha
Occup=    1.00000
   1        -0.00000000
   2        -0.00000000
   3         0.00000000
   4         0.00000000
   5         0.00000000
   6         0.00000000
   7        -0.00000000
   8        -0.00000000
   9         0.00000000
  10         0.00000000
  11         0.00000000
  12         0.00000000
  13         0.00000000
  14        -0.00000000
  15         1.00195164
  16         0.01252705
  17        -0.01122161
  18         0.00092460
  19        -0.00009614
  20         0.00000000
  21        -0.00147024
  22         0.00015288
  23         0.00000000
  24        -0.00011126
  25         0.00000000
  26         0.00000000
  27        -0.00016371
  28         0.00003442
  29         0.00000000
  30        -0.00000000
  31         0.00000000
  32        -0.00000000
  33         0.00000000
  34        -0.00000000
  35         0.00000000
  36        -0.00000000
  37         0.00000000
  38         0.00000000
  39        -0.00091736
  40         0.00237965
  41         0.00044453
  42        -0.00053848
  43         0.00000000
  44        -0.00091738
  45         0.00237968
  46         0.00054582
  47         0.00043549
  48         0.00000000
Sym=     2a' 
Ene=   -11.2160
Spin= Beta
Occup=    1.00000
   1        -0.00000000
   2        -0.00000000
   3         0.00000000
   4        -0.00000000
   5         0.00000000
   6         0.00000000
   7        -0.00000000
   8        -0.00000000
   9         0.00000000
  10         0.00000000
  11         0.00000000
  12         0.00000000
  13         0.00000000
  14        -0.00000000
  15         1.00047282
  16         0.00158500
  17        -0.00364649
  18         0.00112845
  19        -0.00011735
  20         0.00000000
  21        -0.00126862
  22         0.00013192
  23         0.00000000
  24        -0.00073520
  25         0.00000000
  26         0.00000000
  27        -0.00095913
  28         0.00020166
  29         0.00000000
  30        -0.00000000
  31         0.00000000
  32        -0.00000000
  33         0.00000000
  34        -0.00000000
  35         0.00000000
  36        -0.00000000
  37         0.00000000
  38         0.00000000
  39        -0.00055940
  40         0.00181966
  41         0.00029960
  42        -0.00008357
  43         0.00000000
  44        -0.00055939
  45         0.00181967
  46         0.00031038
  47         0.00002013
  48         0.00000000
Sym=     3a' 
Ene=    -0.9622
Spin= Alpha
Occup=    1.00000
   1        -0.00000000
   2        -0.00000000
   3         0.00000000
   4         0.00000000
   5        -0.00000000
   6         0.00000000
   7         0.00000000
   8         0.00000000
   9         0.00000000
  10        -0.00000000
  11         0.00000000
  12         0.00000000
  13        -0.00000000
  14        -0.00000000
  15        -0.01866590
  16         0.85196228
  17        -0.12254600
  18         0.04089223
  19        -0.00425133
  20         0.00000000
  21        -0.02556166
  22         0.00265768
  23         0.00000000
  24         0.01018074
  25         0.00000000
  26         0.00000000
  27         0.01129596
  28        -0.00237498
  29         0.00000000
  30         0.00000000
  31        -0.00000000
  32         0.00000000
  33         0.00000000
  34         0.00000000
  35        -0.00000000
  36        -0.00000000
  37        -0.00000000
  38         0.00000000
  39         0.36760417
  40        -0.16905681
  41        -0.01050579
  42         0.02868747
  43         0.00000000
  44         0.36760682
  45        -0.16905805
  46        -0.01618378
  47        -0.02591204
  48         0.00000000
Sym=     3a' 
Ene=    -0.7990
Spin= Beta
Occup=    1.00000
   1        -0.00000000
   2        -0.00000000
   3         0.00000000
   4        -0.00000000
   5        -0.00000000
   6         0.00000000
   7         0.00000000
   8         0.00000000
   9         0.00000000
  10        -0.00000000
  11         0.00000000
  12         0.00000000
  13        -0.00000000
  14        -0.00000000
  15        -0.02800357
  16         0.67828125
  17        -0.15513911
  18         0.21186420
  19        -0.02203025
  20         0.00000000
  21        -0.07926751
  22         0.00824231
  23         0.00000000
  24        -0.01869320
  25         0.00000000
  26         0.00000000
  27        -0.01597629
  28         0.00335928
  29         0.00000000
  30        -0.00000000
  31        -0.00000000
  32         0.00000000
  33         0.00000000
  34         0.00000000
  35        -0.00000000
  36        -0.00000000
  37        -0.00000000
  38         0.00000000
  39         0.48656967
  40        -0.17890150
  41        -0.01262646
  42         0.02770986
  43         0.00000000
  44         0.48657363
  45        -0.17890300
  46        -0.01805795
  47        -0.02451898
  48         0.00000000
Sym=     4a' 
Ene=    -0.8415
Spin= Alpha
Occup=    1.00000
   1        -0.01168573
   2        -1.04035441
   3         0.07785214
   4         0.04948059
   5        -0.01127130
   6         0.00000000
   7         0.00073046
   8         0.00107522
   9         0.00000000
  10         0.03014384
  11         0.00000000
  12         0.00000000
  13        -0.00128460
  14        -0.00144829
  15        -0.00000000
  16        -0.00000000
  17         0.00000000
  18         0.00000000
  19        -0.00000000
  20         0.00000000
  21        -0.00000000
  22         0.00000000
  23         0.00000000
  24         0.00000000
  25         0.00000000
  26         0.00000000
  27        -0.00000000
  28         0.00000000
  29        -0.07697333
  30         0.02985620
  31        -0.00801932
  32        -0.00608270
  33         0.00000000
  34        -0.10429022
  35         0.04238456
  36        -0.00937371
  37         0.00847002
  38         0.00000000
  39        -0.00000000
  40         0.00000000
  41         0.00000000
  42         0.00000000
  43         0.00000000
  44        -0.00000000
  45         0.00000000
  46         0.00000000
  47        -0.00000000
  48         0.00000000
Sym=     4a' 
Ene=    -0.7175
Spin= Beta
Occup=    1.00000
   1         0.00458986
   2        -0.78154128
   3         0.02018624
   4         0.04997271
   5        -0.00689511
   6         0.00000000
   7        -0.00562944
   8         0.00153552
   9         0.00000000
  10        -0.01007458
  11         0.00000000
  12         0.00000000
  13        -0.00864889
  14         0.00426866
  15         0.00000000
  16         0.00000000
  17        -0.00000000
  18        -0.00000000
  19         0.00000000
  20         0.00000000
  21         0.00000000
  22        -0.00000000
  23         0.00000000
  24        -0.00000000
  25         0.00000000
  26         0.00000000
  27        -0.00000000
  28         0.00000000
  29        -0.32830371
  30         0.06489085
  31        -0.00720367
  32        -0.00633393
  33         0.00000000
  34        -0.35861165
  35         0.07261708
  36        -0.00911572
  37         0.00828713
  38         0.00000000
  39        -0.00000000
  40        -0.00000000
  41         0.00000000
  42         0.00000000
  43         0.00000000
  44         0.00000000
  45        -0.00000000
  46        -0.00000000
  47         0.00000000
  48         0.00000000
Sym=     5a' 
Ene=    -0.6049
Spin= Alpha
Occup=    1.00000
   1        -0.00000000
   2        -0.00000000
   3        -0.00000000
   4         0.00000000
   5        -0.00000000
   6         0.00000000
   7         0.00000000
   8         0.00000000
   9         0.00000000
  10        -0.00000000
  11         0.00000000
  12         0.00000000
  13        -0.00000000
  14         0.00000000
  15        -0.00000008
  16        -0.00000189
  17        -0.00000095
  18         0.07143970
  19         0.68695399
  20         0.00000000
  21        -0.01406387
  22        -0.13523569
  23         0.00000000
  24        -0.00000003
  25         0.00000000
  26         0.00000000
  27         0.00427218
  28         0.02031917
  29         0.00000000
  30        -0.00000000
  31        -0.00000000
  32        -0.00000000
  33         0.00000000
  34         0.00000000
  35         0.00000000
  36        -0.00000000
  37        -0.00000000
  38         0.00000000
  39        -0.53798978
  40         0.17362611
  41         0.01158283
  42        -0.01747891
  43         0.00000000
  44         0.53799056
  45        -0.17362659
  46        -0.01493140
  47        -0.01472169
  48         0.00000000
Sym=     5a' 
Ene=    -0.5669
Spin= Beta
Occup=    1.00000
   1        -0.00000000
   2        -0.00000000
   3         0.00000000
   4         0.00000000
   5        -0.00000000
   6         0.00000000
   7         0.00000000
   8         0.00000000
   9         0.00000000
  10        -0.00000000
  11         0.00000000
  12         0.00000000
  13        -0.00000000
  14         0.00000000
  15         0.00000001
  16        -0.00000137
  17        -0.00000052
  18         0.06396497
  19         0.61509880
  20         0.00000000
  21        -0.01488867
  22        -0.14317069
  23         0.00000000
  24         0.00000005
  25         0.00000000
  26         0.00000000
  27         0.00751000
  28         0.03571786
  29         0.00000000
  30        -0.00000000
  31        -0.00000000
  32        -0.00000000
  33         0.00000000
  34         0.00000000
  35         0.00000000
  36        -0.00000000
  37        -0.00000000
  38         0.00000000
  39        -0.58589878
  40         0.14952359
  41         0.01769996
  42        -0.01071199
  43         0.00000000
  44         0.58589654
  45        -0.14952331
  46        -0.01952527
  47        -0.00684076
  48         0.00000000
Sym=     6a' 
Ene=    -0.4815
Spin= Alpha
Occup=    1.00000
   1         0.00000000
   2        -0.00000000
   3        -0.00000000
   4        -0.00000000
   5        -0.00000000
   6         0.00000000
   7         0.00000000
   8         0.00000000
   9         0.00000000
  10        -0.00000000
  11         0.00000000
  12         0.00000000
  13         0.00000000
  14        -0.00000000
  15        -0.01128371
  16        -0.30878404
  17        -0.12658889
  18         0.84755310
  19        -0.08813983
  20         0.00000000
  21        -0.02356502
  22         0.00245056
  23         0.00000000
  24        -0.01157887
  25         0.00000000
  26         0.00000000
  27        -0.01653625
  28         0.00347685
  29         0.00000000
  30        -0.00000000
  31         0.00000000
  32        -0.00000000
  33         0.00000000
  34         0.00000000
  35         0.00000000
  36        -0.00000000
  37        -0.00000000
  38         0.00000000
  39         0.29032288
  40        -0.08676487
  41         0.00992610
  42         0.01519974
  43         0.00000000
  44         0.29032074
  45        -0.08676459
  46         0.00658633
  47        -0.01691685
  48         0.00000000
Sym=     6a' 
Ene=    -0.4682
Spin= Beta
Occup=    1.00000
   1        -0.00046297
   2         0.58268974
   3         0.13569185
   4         0.22970131
   5        -0.01463350
   6         0.00000000
   7        -0.01346559
   8        -0.00116438
   9         0.00000000
  10         0.02579611
  11         0.00000000
  12         0.00000000
  13        -0.00717860
  14        -0.00171912
  15        -0.00000000
  16        -0.00000000
  17         0.00000000
  18         0.00000000
  19         0.00000000
  20         0.00000000
  21        -0.00000000
  22        -0.00000000
  23         0.00000000
  24        -0.00000000
  25         0.00000000
  26         0.00000000
  27         0.00000000
  28         0.00000000
  29        -0.62027441
  30        -0.00941529
  31         0.00164597
  32        -0.00718715
  33         0.00000000
  34        -0.43879999
  35         0.00398698
  36         0.00397844
  37         0.00833292
  38         0.00000000
  39        -0.00000000
  40         0.00000000
  41        -0.00000000
  42         0.00000000
  43         0.00000000
  44         0.00000000
  45        -0.00000000
  46        -0.00000000
  47        -0.00000000
  48         0.00000000
Sym=     7a' 
Ene=    -0.4530
Spin= Alpha
Occup=    1.00000
   1         0.00821185
   2         0.18153393
   3        -0.01063017
   4         0.83527148
   5         0.29446828
   6         0.00000000
   7        -0.00212455
   8        -0.00923381
   9         0.00000000
  10         0.01102201
  11         0.00000000
  12         0.00000000
  13        -0.02102984
  14        -0.00143024
  15        -0.00000000
  16        -0.00000000
  17         0.00000000
  18         0.00000000
  19        -0.00000000
  20         0.00000000
  21        -0.00000000
  22         0.00000000
  23         0.00000000
  24        -0.00000000
  25         0.00000000
  26         0.00000000
  27         0.00000000
  28        -0.00000000
  29        -0.20331504
  30         0.03332951
  31        -0.01450372
  32        -0.01409412
  33         0.00000000
  34        -0.17373317
  35         0.03194088
  36        -0.00658003
  37         0.01563577
  38         0.00000000
  39         0.00000000
  40         0.00000000
  41        -0.00000000
  42         0.00000000
  43         0.00000000
  44        -0.00000000
  45         0.00000000
  46        -0.00000000
  47        -0.00000000
  48         0.00000000
Sym=     7a' 
Ene=    -0.4061
Spin= Beta
Occup=    1.00000
   1        -0.00019631
   2         0.07958868
   3         0.03040989
   4         0.05757923
   5        -0.22237542
   6         0.00000000
   7        -0.00037436
   8         0.00733571
   9         0.00000000
  10         0.00505035
  11         0.00000000
  12         0.00000000
  13         0.00088146
  14         0.02515978
  15         0.00000000
  16         0.00000000
  17        -0.00000000
  18        -0.00000000
  19        -0.00000000
  20         0.00000000
  21         0.00000000
  22         0.00000000
  23         0.00000000
  24        -0.00000000
  25         0.00000000
  26         0.00000000
  27        -0.00000000
  28        -0.00000000
  29         0.63508856
  30         0.10803676
  31         0.00666647
  32        -0.00766104
  33         0.00000000
  34        -0.71732408
  35        -0.10569640
  36        -0.00987468
  37        -0.00389602
  38         0.00000000
  39         0.00000000
  40        -0.00000000
  41         0.00000000
  42         0.00000000
  43         0.00000000
  44        -0.00000000
  45         0.00000000
  46        -0.00000000
  47         0.00000000
  48         0.00000000
Sym=     8a' 
Ene=    -0.4505
Spin= Alpha
Occup=    1.00000
   1         0.00296293
   2         0.08433910
   3         0.00122567
   4         0.22318752
   5        -0.92813055
   6         0.00000000
   7         0.00147255
   8         0.02417665
   9         0.00000000
  10         0.00479991
  11         0.00000000
  12         0.00000000
  13        -0.00399516
  14         0.02119520
  15         0.00000000
  16         0.00000000
  17        -0.00000000
  18         0.00000000
  19        -0.00000000
  20         0.00000000
  21         0.00000000
  22         0.00000000
  23         0.00000000
  24         0.00000000
  25         0.00000000
  26         0.00000000
  27        -0.00000000
  28         0.00000000
  29         0.03838116
  30         0.00098243
  31         0.00691108
  32        -0.00300886
  33         0.00000000
  34        -0.20412030
  35         0.02831368
  36        -0.01598848
  37         0.00869008
  38         0.00000000
  39        -0.00000000
  40         0.00000000
  41        -0.00000000
  42         0.00000000
  43         0.00000000
  44        -0.00000000
  45         0.00000000
  46         0.00000000
  47        -0.00000000
  48         0.00000000
Sym=     8a' 
Ene=     0.1183
Spin= Beta
Occup=    0.00000
   1        -0.00000000
   2        -0.00000000
   3         0.00000000
   4        -0.00000000
   5        -0.00000000
   6         0.00000000
   7        -0.00000000
   8        -0.00000000
   9         0.00000000
  10        -0.00000000
  11         0.00000000
  12         0.00000000
  13         0.00000000
  14        -0.00000000
  15         0.04778913
  16        -0.20791878
  17        -0.45943495
  18         0.46203655
  19        -0.04804743
  20         0.00000000
  21         0.35373334
  22        -0.03678473
  23         0.00000000
  24        -0.01022718
  25         0.00000000
  26         0.00000000
  27         0.02632761
  28        -0.00553546
  29         0.00000000
  30        -0.00000000
  31        -0.00000000
  32        -0.00000000
  33         0.00000000
  34        -0.00000000
  35        -0.00000000
  36        -0.00000000
  37         0.00000000
  38         0.00000000
  39         0.17791263
  40         0.04045075
  41         0.01335070
  42         0.00080293
  43         0.00000000
  44         0.17791237
  45         0.04044858
  46         0.01289982
  47        -0.00353269
  48         0.00000000
Sym=     9a' 
Ene=     0.0979
Spin= Alpha
Occup=    0.00000
   1         0.00022807
   2        -0.29215785
   3        -0.28627391
   4         0.46744413
   5        -0.01799138
   6         0.00000000
   7         0.28240102
   8        -0.02399452
   9         0.00000000
  10        -0.00078732
  11         0.00000000
  12         0.00000000
  13         0.00638398
  14         0.00223603
  15         0.00000000
  16         0.00000000
  17        -0.00000000
  18        -0.00000000
  19        -0.00000000
  20         0.00000000
  21         0.00000000
  22         0.00000000
  23         0.00000000
  24         0.00000000
  25         0.00000000
  26         0.00000000
  27         0.00000000
  28        -0.00000000
  29         0.27894778
  30         0.53984904
  31        -0.00129692
  32         0.00718894
  33         0.00000000
  34         0.23192205
  35         0.50299972
  36        -0.00368238
  37        -0.00721179
  38         0.00000000
  39        -0.00000000
  40         0.00000000
  41         0.00000000
  42        -0.00000000
  43         0.00000000
  44        -0.00000000
  45         0.00000000
  46         0.00000000
  47         0.00000000
  48         0.00000000
Sym=     9a' 
Ene=     0.1359
Spin= Beta
Occup=    0.00000
   1         0.01293889
   2        -0.10377743
   3        -0.23719123
   4         0.56753204
   5         0.34665702
   6         0.00000000
   7         0.45468075
   8         0.22715326
   9         0.00000000
  10         0.00402141
  11         0.00000000
  12         0.00000000
  13        -0.01033604
  14        -0.00014346
  15        -0.00000000
  16        -0.00000000
  17         0.00000000
  18         0.00000000
  19        -0.00000000
  20         0.00000000
  21         0.00000000
  22         0.00000000
  23         0.00000000
  24        -0.00000000
  25         0.00000000
  26         0.00000000
  27         0.00000000
  28         0.00000000
  29         0.20838126
  30         0.48669602
  31        -0.02412051
  32        -0.01063721
  33         0.00000000
  34        -0.04587250
  35         0.23134660
  36        -0.00276731
  37         0.01023298
  38         0.00000000
  39         0.00000000
  40        -0.00000000
  41        -0.00000000
  42         0.00000000
  43         0.00000000
  44        -0.00000000
  45        -0.00000000
  46        -0.00000000
  47        -0.00000000
  48         0.00000000
Sym=    10a' 
Ene=     0.1492
Spin= Alpha
Occup=    0.00000
   1         0.00219644
   2        -0.02621344
   3        -0.06911457
   4         0.03342294
   5        -0.35736905
   6         0.00000000
   7         0.04551585
   8        -0.16666860
   9         0.00000000
  10         0.00076127
  11         0.00000000
  12         0.00000000
  13        -0.00267623
  14        -0.03188852
  15        -0.00000000
  16        -0.00000000
  17         0.00000000
  18        -0.00000000
  19        -0.00000000
  20         0.00000000
  21         0.00000000
  22         0.00000000
  23         0.00000000
  24        -0.00000000
  25         0.00000000
  26         0.00000000
  27         0.00000000
  28        -0.00000000
  29        -0.32142787
  30        -0.67150488
  31        -0.00668173
  32        -0.00022230
  33         0.00000000
  34         0.35648780
  35         0.77132364
  36         0.00711826
  37        -0.00099482
  38         0.00000000
  39        -0.00000000
  40         0.00000000
  41        -0.00000000
  42         0.00000000
  43         0.00000000
  44        -0.00000000
  45         0.00000000
  46        -0.00000000
  47        -0.00000000
  48         0.00000000
Sym=    10a' 
Ene=     0.1408
Spin= Beta
Occup=    0.00000
   1         0.01177801
   2        -0.08733490
   3        -0.21412950
   4         0.33740692
   5        -0.57357964
   6         0.00000000
   7         0.29069865
   8        -0.40259595
   9         0.00000000
  10         0.00191467
  11         0.00000000
  12         0.00000000
  13        -0.00541808
  14         0.00416704
  15        -0.00000000
  16         0.00000000
  17         0.00000000
  18        -0.00000000
  19        -0.00000000
  20         0.00000000
  21         0.00000000
  22         0.00000000
  23         0.00000000
  24        -0.00000000
  25         0.00000000
  26         0.00000000
  27        -0.00000000
  28         0.00000000
  29        -0.15281367
  30        -0.03802788
  31         0.00384922
  32        -0.00247476
  33         0.00000000
  34         0.26737797
  35         0.60099677
  36        -0.02181068
  37         0.00990020
  38         0.00000000
  39         0.00000000
  40        -0.00000000
  41        -0.00000000
  42         0.00000000
  43         0.00000000
  44        -0.00000000
  45        -0.00000000
  46        -0.00000000
  47         0.00000000
  48         0.00000000
Sym=    11a' 
Ene=     0.2059
Spin= Alpha
Occup=    0.00000
   1         0.00000000
   2         0.00000000
   3        -0.00000000
   4        -0.00000000
   5        -0.00000000
   6         0.00000000
   7         0.00000000
   8         0.00000000
   9         0.00000000
  10        -0.00000000
  11         0.00000000
  12         0.00000000
  13         0.00000000
  14         0.00000000
  15         0.05801441
  16        -0.21605650
  17        -1.87586685
  18        -0.20685211
  19         0.02151260
  20         0.00000000
  21        -0.58919817
  22         0.06127368
  23         0.00000000
  24         0.01757412
  25         0.00000000
  26         0.00000000
  27         0.00803098
  28        -0.00168866
  29         0.00000000
  30        -0.00000000
  31         0.00000000
  32        -0.00000000
  33         0.00000000
  34         0.00000000
  35        -0.00000000
  36         0.00000000
  37         0.00000000
  38         0.00000000
  39         0.04195486
  40         1.43113341
  41        -0.00772620
  42         0.02249494
  43         0.00000000
  44         0.04195382
  45         1.43113102
  46        -0.01218948
  47        -0.02042382
  48         0.00000000
Sym=    11a' 
Ene=     0.2256
Spin= Beta
Occup=    0.00000
   1         0.00000000
   2         0.00000000
   3        -0.00000000
   4         0.00000000
   5         0.00000000
   6         0.00000000
   7        -0.00000000
   8        -0.00000000
   9         0.00000000
  10        -0.00000000
  11         0.00000000
  12         0.00000000
  13         0.00000000
  14        -0.00000000
  15         0.07568472
  16        -0.13924659
  17        -1.98766038
  18        -0.23103050
  19         0.02402622
  20         0.00000000
  21        -0.62083584
  22         0.06456216
  23         0.00000000
  24         0.04096671
  25         0.00000000
  26         0.00000000
  27         0.01409673
  28        -0.00296396
  29         0.00000000
  30        -0.00000000
  31        -0.00000000
  32        -0.00000000
  33         0.00000000
  34         0.00000000
  35        -0.00000000
  36         0.00000000
  37         0.00000000
  38         0.00000000
  39        -0.01908750