[Molden Format]
[N_Atoms]
                    6
[Atoms] (AU)
C1          1      6        -190.62215440      2.98674993      0.00000000
C2          2      6          -1.03572109      2.72640237      0.00000000
H3          3      1        -193.71892419      1.42540152      0.00000000
H4          4      1        -193.37183819      4.76305470      0.00000000
H5          5      1          -0.17576343      0.95009760      0.00000000
H6          6      1           0.17132257      4.28775078      0.00000000
[5D]
[Charge] (Mulliken)
  -2.6483634563066794E-002
 -0.26586015233784277     
  -1.1312197325332285E-002
   3.7795831888355891E-002
  0.13293065618162070     
  0.13292949615620464     
[GTO] (AU)
   1
   s   9
  6.665000000E+03  6.920001793E-04
  1.000000000E+03  5.329001381E-03
  2.280000000E+02  2.707700701E-02
  6.471000000E+01  1.017180264E-01
  2.106000000E+01  2.747400712E-01
  7.495000000E+00  4.485641162E-01
  2.797000000E+00  2.850740738E-01
  5.215000000E-01  1.520400394E-02
  1.596000000E-01 -3.191000827E-03
   s   9
  6.665000000E+03 -1.460000642E-04
  1.000000000E+03 -1.154000508E-03
  2.280000000E+02 -5.725002519E-03
  6.471000000E+01 -2.331201026E-02
  2.106000000E+01 -6.395502813E-02
  7.495000000E+00 -1.499810660E-01
  2.797000000E+00 -1.272620560E-01
  5.215000000E-01  5.445292395E-01
  1.596000000E-01  5.804962554E-01
   s   1
  1.596000000E-01  1.000000000E+00
   p   4
  9.439000000E+00  3.810902127E-02
  2.002000000E+00  2.094801169E-01
  5.456000000E-01  5.085572839E-01
  1.517000000E-01  4.688422617E-01
   p   1
  1.517000000E-01  1.000000000E+00
   d   1
  5.500000000E-01  1.000000000E+00
 
   2
   s   9
  6.665000000E+03  6.920001793E-04
  1.000000000E+03  5.329001381E-03
  2.280000000E+02  2.707700701E-02
  6.471000000E+01  1.017180264E-01
  2.106000000E+01  2.747400712E-01
  7.495000000E+00  4.485641162E-01
  2.797000000E+00  2.850740738E-01
  5.215000000E-01  1.520400394E-02
  1.596000000E-01 -3.191000827E-03
   s   9
  6.665000000E+03 -1.460000642E-04
  1.000000000E+03 -1.154000508E-03
  2.280000000E+02 -5.725002519E-03
  6.471000000E+01 -2.331201026E-02
  2.106000000E+01 -6.395502813E-02
  7.495000000E+00 -1.499810660E-01
  2.797000000E+00 -1.272620560E-01
  5.215000000E-01  5.445292395E-01
  1.596000000E-01  5.804962554E-01
   s   1
  1.596000000E-01  1.000000000E+00
   p   4
  9.439000000E+00  3.810902127E-02
  2.002000000E+00  2.094801169E-01
  5.456000000E-01  5.085572839E-01
  1.517000000E-01  4.688422617E-01
   p   1
  1.517000000E-01  1.000000000E+00
   d   1
  5.500000000E-01  1.000000000E+00
 
   3
   s   4
  1.301000000E+01  1.968498999E-02
  1.962000000E+00  1.379769298E-01
  4.446000000E-01  4.781477569E-01
  1.220000000E-01  5.012397451E-01
   s   1
  1.220000000E-01  1.000000000E+00
   p   1
  7.270000000E-01  1.000000000E+00
 
   4
   s   4
  1.301000000E+01  1.968498999E-02
  1.962000000E+00  1.379769298E-01
  4.446000000E-01  4.781477569E-01
  1.220000000E-01  5.012397451E-01
   s   1
  1.220000000E-01  1.000000000E+00
   p   1
  7.270000000E-01  1.000000000E+00
 
   5
   s   4
  1.301000000E+01  1.968498999E-02
  1.962000000E+00  1.379769298E-01
  4.446000000E-01  4.781477569E-01
  1.220000000E-01  5.012397451E-01
   s   1
  1.220000000E-01  1.000000000E+00
   p   1
  7.270000000E-01  1.000000000E+00
 
   6
   s   4
  1.301000000E+01  1.968498999E-02
  1.962000000E+00  1.379769298E-01
  4.446000000E-01  4.781477569E-01
  1.220000000E-01  5.012397451E-01
   s   1
  1.220000000E-01  1.000000000E+00
   p   1
  7.270000000E-01  1.000000000E+00
 
[MO]
Sym=     1a' 
Ene=   -11.4290
Spin= Alpha
Occup=    2.00000
   1         0.99995768
   2        -0.00112851
   3        -0.00008256
   4        -0.00231008
   5         0.00018387
   6         0.00000000
   7         0.00249905
   8        -0.00019568
   9         0.00000000
  10        -0.00027422
  11         0.00000000
  12         0.00000000
  13        -0.00026428
  14        -0.00001480
  15        -0.00000000
  16        -0.00000000
  17         0.00000000
  18        -0.00000000
  19         0.00000000
  20         0.00000000
  21        -0.00000000
  22         0.00000000
  23         0.00000000
  24        -0.00000000
  25         0.00000000
  26         0.00000000
  27         0.00000000
  28         0.00000000
  29         0.00055804
  30         0.00034255
  31         0.00019931
  32         0.00006227
  33         0.00000000
  34         0.00059992
  35         0.00039067
  36         0.00010261
  37        -0.00002946
  38         0.00000000
  39        -0.00000000
  40         0.00000000
  41        -0.00000000
  42         0.00000000
  43         0.00000000
  44        -0.00000000
  45        -0.00000000
  46        -0.00000000
  47         0.00000000
  48         0.00000000
Sym=     2a' 
Ene=   -11.2680
Spin= Alpha
Occup=    2.00000
   1        -0.00000000
   2        -0.00000000
   3         0.00000000
   4         0.00000000
   5         0.00000000
   6         0.00000000
   7        -0.00000000
   8        -0.00000000
   9         0.00000000
  10         0.00000000
  11         0.00000000
  12         0.00000000
  13         0.00000000
  14        -0.00000000
  15         1.00088039
  16         0.00542917
  17        -0.00689826
  18        -0.00175297
  19         0.00018229
  20         0.00000000
  21         0.00032964
  22        -0.00003429
  23         0.00000000
  24         0.00044784
  25         0.00000000
  26         0.00000000
  27        -0.00069663
  28         0.00014647
  29         0.00000000
  30        -0.00000000
  31         0.00000000
  32        -0.00000000
  33         0.00000000
  34        -0.00000000
  35         0.00000000
  36        -0.00000000
  37         0.00000000
  38         0.00000000
  39         0.00034855
  40         0.00160838
  41         0.00019881
  42         0.00024226
  43         0.00000000
  44         0.00034856
  45         0.00160839
  46         0.00014470
  47        -0.00027799
  48         0.00000000
Sym=     3a' 
Ene=    -0.8754
Spin= Alpha
Occup=    2.00000
   1        -0.00000000
   2        -0.00000000
   3         0.00000000
   4        -0.00000000
   5        -0.00000000
   6         0.00000000
   7         0.00000000
   8         0.00000000
   9         0.00000000
  10        -0.00000000
  11         0.00000000
  12         0.00000000
  13        -0.00000000
  14        -0.00000000
  15        -0.02370211
  16         0.77442970
  17        -0.12592279
  18         0.12127168
  19        -0.01260973
  20         0.00000000
  21        -0.05254171
  22         0.00546319
  23         0.00000000
  24        -0.00148421
  25         0.00000000
  26         0.00000000
  27        -0.00969902
  28         0.00203937
  29         0.00000000
  30        -0.00000000
  31        -0.00000000
  32         0.00000000
  33         0.00000000
  34         0.00000000
  35        -0.00000000
  36        -0.00000000
  37        -0.00000000
  38         0.00000000
  39         0.41985214
  40        -0.17551357
  41        -0.01197360
  42         0.02752220
  43         0.00000000
  44         0.41985536
  45        -0.17551490
  46        -0.01738043
  47        -0.02446969
  48         0.00000000
Sym=     4a' 
Ene=    -0.7838
Spin= Alpha
Occup=    2.00000
   1         0.00670482
   2         0.96232880
   3        -0.05707102
   4        -0.02684714
   5         0.01200944
   6         0.00000000
   7        -0.00596442
   8        -0.00100623
   9         0.00000000
  10        -0.00947178
  11         0.00000000
  12         0.00000000
  13         0.00408478
  14        -0.00190577
  15        -0.00000000
  16        -0.00000000
  17         0.00000000
  18         0.00000000
  19        -0.00000000
  20         0.00000000
  21        -0.00000000
  22        -0.00000000
  23         0.00000000
  24        -0.00000000
  25         0.00000000
  26         0.00000000
  27         0.00000000
  28        -0.00000000
  29         0.16450167
  30        -0.03991135
  31         0.00930781
  32         0.00714781
  33         0.00000000
  34         0.19651404
  35        -0.05284375
  36         0.01073718
  37        -0.00930173
  38         0.00000000
  39        -0.00000000
  40         0.00000000
  41        -0.00000000
  42        -0.00000000
  43         0.00000000
  44         0.00000000
  45         0.00000000
  46        -0.00000000
  47        -0.00000000
  48         0.00000000
Sym=     5a' 
Ene=    -0.5934
Spin= Alpha
Occup=    2.00000
   1        -0.00000000
   2        -0.00000000
   3        -0.00000000
   4         0.00000000
   5        -0.00000000
   6         0.00000000
   7         0.00000000
   8         0.00000000
   9         0.00000000
  10        -0.00000000
  11         0.00000000
  12         0.00000000
  13        -0.00000000
  14         0.00000000
  15        -0.00000003
  16        -0.00000146
  17        -0.00000069
  18         0.06894581
  19         0.66299011
  20         0.00000000
  21        -0.01430544
  22        -0.13756129
  23         0.00000000
  24         0.00000000
  25         0.00000000
  26         0.00000000
  27         0.00313528
  28         0.01491159
  29         0.00000000
  30        -0.00000000
  31        -0.00000000
  32        -0.00000000
  33         0.00000000
  34         0.00000000
  35         0.00000000
  36        -0.00000000
  37        -0.00000000
  38         0.00000000
  39        -0.56339478
  40         0.17615851
  41         0.01423574
  42        -0.01597219
  43         0.00000000
  44         0.56339368
  45        -0.17615841
  46        -0.01721751
  47        -0.01270125
  48         0.00000000
Sym=     6a' 
Ene=    -0.4315
Spin= Alpha
Occup=    2.00000
   1        -0.01317719
   2        -0.40377710
   3        -0.03973563
   4        -0.49828772
   5         0.13040122
   6         0.00000000
   7        -0.00787951
   8        -0.00314395
   9         0.00000000
  10        -0.02003035
  11         0.00000000
  12         0.00000000
  13         0.01725329
  14        -0.00710510
  15         0.00000000
  16         0.00000000
  17        -0.00000000
  18         0.00000000
  19        -0.00000000
  20         0.00000000
  21        -0.00000000
  22        -0.00000000
  23         0.00000000
  24         0.00000000
  25         0.00000000
  26         0.00000000
  27        -0.00000000
  28         0.00000000
  29         0.36977841
  30         0.00543127
  31         0.00472901
  32         0.01739148
  33         0.00000000
  34         0.47362034
  35         0.00743866
  36         0.00692689
  37        -0.01890413
  38         0.00000000
  39        -0.00000000
  40         0.00000000
  41         0.00000000
  42        -0.00000000
  43         0.00000000
  44         0.00000000
  45        -0.00000000
  46         0.00000000
  47         0.00000000
  48         0.00000000
Sym=     7a' 
Ene=    -0.3744
Spin= Alpha
Occup=    2.00000
   1         0.00252583
   2         0.04368881
   3        -0.00239601
   4         0.07701945
   5         0.68893994
   6         0.00000000
   7         0.00933109
   8         0.02813615
   9         0.00000000
  10         0.00212055
  11         0.00000000
  12         0.00000000
  13        -0.00692049
  14        -0.03427153
  15        -0.00000000
  16        -0.00000000
  17         0.00000000
  18         0.00000000
  19        -0.00000000
  20         0.00000000
  21        -0.00000000
  22         0.00000000
  23         0.00000000
  24        -0.00000000
  25         0.00000000
  26         0.00000000
  27         0.00000000
  28        -0.00000000
  29        -0.42384962
  30        -0.08236857
  31        -0.01722138
  32        -0.00232511
  33         0.00000000
  34         0.29873893
  35         0.05390488
  36         0.01824677
  37         0.00268265
  38         0.00000000
  39         0.00000000
  40        -0.00000000
  41        -0.00000000
  42         0.00000000
  43         0.00000000
  44         0.00000000
  45        -0.00000000
  46        -0.00000000
  47        -0.00000000
  48         0.00000000
Sym=     8a' 
Ene=    -0.0014
Spin= Alpha
Occup=    0.00000
   1         0.00000000
   2        -0.00000000
   3        -0.00000000
   4        -0.00000000
   5        -0.00000000
   6         0.00000000
   7         0.00000000
   8         0.00000000
   9         0.00000000
  10        -0.00000000
  11         0.00000000
  12         0.00000000
  13         0.00000000
  14        -0.00000000
  15         0.02729926
  16        -0.22786294
  17        -0.38320143
  18         0.58452083
  19        -0.06078504
  20         0.00000000
  21         0.22599721
  22        -0.02350166
  23         0.00000000
  24        -0.00665845
  25         0.00000000
  26         0.00000000
  27        -0.00837639
  28         0.00176125
  29         0.00000000
  30        -0.00000000
  31         0.00000000
  32        -0.00000000
  33         0.00000000
  34         0.00000000
  35         0.00000000
  36        -0.00000000
  37        -0.00000000
  38         0.00000000
  39         0.25428234
  40         0.00461770
  41         0.01308093
  42         0.00648037
  43         0.00000000
  44         0.25428183
  45         0.00461639
  46         0.01146765
  47        -0.00903320
  48         0.00000000
Sym=     9a' 
Ene=     0.0701
Spin= Alpha
Occup=    0.00000
   1         0.00318107
   2        -0.09660977
   3        -0.10077244
   4         0.34709272
   5         0.51816175
   6         0.00000000
   7         0.17298781
   8         0.20393040
   9         0.00000000
  10         0.00090383
  11         0.00000000
  12         0.00000000
  13        -0.00216949
  14         0.01573440
  15        -0.00000000
  16        -0.00000000
  17         0.00000000
  18        -0.00000000
  19         0.00000000
  20         0.00000000
  21        -0.00000000
  22        -0.00000000
  23         0.00000000
  24         0.00000000
  25         0.00000000
  26         0.00000000
  27         0.00000000
  28        -0.00000000
  29         0.47437930
  30         0.61673219
  31        -0.01207201
  32        -0.00520346
  33         0.00000000
  34        -0.27626870
  35        -0.23309773
  36        -0.00185366
  37        -0.00160494
  38         0.00000000
  39         0.00000000
  40        -0.00000000
  41        -0.00000000
  42         0.00000000
  43         0.00000000
  44         0.00000000
  45        -0.00000000
  46        -0.00000000
  47         0.00000000
  48         0.00000000
Sym=    10a' 
Ene=     0.0909
Spin= Alpha
Occup=    0.00000
   1         0.01116342
   2        -0.20014795
   3        -0.29835004
   4         0.58458219
   5        -0.29592861
   6         0.00000000
   7         0.35204051
   8        -0.13979638
   9         0.00000000
  10         0.00185651
  11         0.00000000
  12         0.00000000
  13        -0.00533780
  14        -0.00654377
  15        -0.00000000
  16        -0.00000000
  17         0.00000000
  18         0.00000000
  19         0.00000000
  20         0.00000000
  21         0.00000000
  22         0.00000000
  23         0.00000000
  24        -0.00000000
  25         0.00000000
  26         0.00000000
  27         0.00000000
  28         0.00000000
  29        -0.01151847
  30         0.13600520
  31        -0.01002041
  32         0.00026782
  33         0.00000000
  34         0.37395068
  35         0.70484097
  36        -0.01400382
  37         0.00637717
  38         0.00000000
  39         0.00000000
  40        -0.00000000
  41        -0.00000000
  42         0.00000000
  43         0.00000000
  44        -0.00000000
  45         0.00000000
  46         0.00000000
  47         0.00000000
  48         0.00000000
Sym=    11a' 
Ene=     0.2150
Spin= Alpha
Occup=    0.00000
   1         0.00000000
   2        -0.00000000
   3        -0.00000000
   4        -0.00000000
   5        -0.00000000
   6         0.00000000
   7         0.00000000
   8         0.00000000
   9         0.00000000
  10        -0.00000000
  11         0.00000000
  12         0.00000000
  13         0.00000000
  14         0.00000000
  15         0.06346388
  16        -0.18822592
  17        -1.91428143
  18        -0.20421677
  19         0.02123823
  20         0.00000000
  21        -0.65361001
  22         0.06797144
  23         0.00000000
  24         0.03164969
  25         0.00000000
  26         0.00000000
  27         0.01232882
  28        -0.00259229
  29        -0.00000000
  30        -0.00000000
  31        -0.00000000
  32         0.00000000
  33         0.00000000
  34        -0.00000000
  35        -0.00000000
  36        -0.00000000
  37        -0.00000000
  38         0.00000000
  39         0.01157484
  40         1.46237048
  41        -0.00856217
  42         0.02326338
  43         0.00000000
  44         0.01157425
  45         1.46236978
  46        -0.01316568
  47        -0.02100385
  48         0.00000000
Sym=    12a' 
Ene=     0.2708
Spin= Alpha
Occup=    0.00000
   1        -0.00000000
   2        -0.00000000
   3         0.00000000
   4         0.00000000
   5        -0.00000000
   6         0.00000000
   7        -0.00000000
   8         0.00000000
   9         0.00000000
  10        -0.00000000
  11         0.00000000
  12         0.00000000
  13         0.00000000
  14         0.00000000
  15        -0.00000015
  16         0.00000020
  17         0.00000959
  18         0.04634719
  19         0.44568326
  20         0.00000000
  21         0.12574424
  22         1.20915987
  23         0.00000000
  24        -0.00000019
  25         0.00000000
  26         0.00000000
  27         0.00673564
  28         0.03203596
  29        -0.00000000
  30         0.00000000
  31         0.00000000
  32         0.00000000
  33         0.00000000
  34        -0.00000000
  35         0.00000000
  36        -0.00000000
  37        -0.00000000
  38         0.00000000
  39         0.00192924
  40         1.98102820
  41        -0.00752270
  42         0.02302138
  43         0.00000000
  44        -0.00192804
  45        -1.98104010
  46         0.01209870
  47         0.02098124
  48         0.00000000
Sym=    13a' 
Ene=     0.6126
Spin= Alpha
Occup=    0.00000
   1        -0.00000000
   2         0.00000000
   3         0.00000000
   4        -0.00000000
   5         0.00000000
   6         0.00000000
   7        -0.00000000
   8         0.00000000
   9         0.00000000
  10        -0.00000000
  11         0.00000000
  12         0.00000000
  13         0.00000000
  14        -0.00000000
  15        -0.00000023
  16        -0.00000034
  17         0.00000796
  18        -0.04928523
  19        -0.47390578
  20         0.00000000
  21         0.19156667
  22         1.84207893
  23         0.00000000
  24        -0.00000032
  25         0.00000000
  26         0.00000000
  27        -0.02266882
  28        -0.10781354
  29         0.00000000
  30        -0.00000000
  31         0.00000000
  32         0.00000000
  33         0.00000000
  34         0.00000000
  35        -0.00000000
  36        -0.00000000
  37        -0.00000000
  38         0.00000000
  39         1.11996710
  40        -0.19406003
  41         0.03190285
  42         0.00499232
  43         0.00000000
  44        -1.11996647
  45         0.19405122
  46        -0.03019304
  47         0.01144961
  48         0.00000000
Sym=    14a' 
Ene=     0.6142
Spin= Alpha
Occup=    0.00000
   1         0.02592099
   2         0.08312212
   3        -0.48942578
   4        -0.91165508
   5         0.02778487
   6         0.00000000
   7         1.13110800
   8        -0.05070331
   9         0.00000000
  10         0.07644749
  11         0.00000000
  12         0.00000000
  13        -0.06747111
  14         0.02700705
  15         0.00000000
  16         0.00000000
  17        -0.00000000
  18         0.00000000
  19        -0.00000000
  20         0.00000000
  21        -0.00000000
  22         0.00000000
  23         0.00000000
  24         0.00000000
  25         0.00000000
  26         0.00000000
  27        -0.00000000
  28        -0.00000000
  29        -1.11227374
  30         1.28510576
  31         0.01708036
  32        -0.02827094
  33         0.00000000
  34        -1.38155940
  35         1.67283910
  36         0.03179756
  37         0.02049951
  38         0.00000000
  39         0.00000000
  40        -0.00000000
  41         0.00000000
  42        -0.00000000
  43         0.00000000
  44        -0.00000000
  45         0.00000000
  46         0.00000000
  47         0.00000000
  48         0.00000000
Sym=    15a' 
Ene=     0.6461
Spin= Alpha
Occup=    0.00000
   1         0.01218654
   2         0.08373344
   3        -0.06925310
   4         0.13025164
   5        -0.21753130
   6         0.00000000
   7        -0.20640071
   8         0.10306201
   9         0.00000000
  10         0.00520266
  11         0.00000000
  12         0.00000000
  13         0.01074743
  14         0.13720603
  15        -0.00000000
  16         0.00000000
  17         0.00000000
  18        -0.00000000
  19        -0.00000000
  20         0.00000000
  21         0.00000000
  22        -0.00000000
  23         0.00000000
  24         0.00000000
  25         0.00000000
  26         0.00000000
  27         0.00000000
  28        -0.00000000
  29         1.57373661
  30        -2.05454347
  31         0.02638719
  32         0.01331857
  33         0.00000000
  34        -1.44106185
  35         1.85701665
  36        -0.03363175
  37         0.01187131
  38         0.00000000
  39        -0.00000000
  40         0.00000000
  41        -0.00000000
  42         0.00000000
  43         0.00000000
  44        -0.00000000
  45         0.00000000
  46        -0.00000000
  47        -0.00000000
  48         0.00000000
Sym=    16a' 
Ene=     0.6715
Spin= Alpha
Occup=    0.00000
   1        -0.00000000
   2        -0.00000000
   3         0.00000000
   4        -0.00000000
   5        -0.00000000
   6         0.00000000
   7         0.00000000
   8         0.00000000
   9         0.00000000
  10        -0.00000000
  11         0.00000000
  12         0.00000000
  13         0.00000000
  14         0.00000000
  15         0.01609004
  16        -0.25713637
  17        -0.46812479
  18         0.93614535
  19        -0.09735022
  20         0.00000000
  21        -1.53998795
  22         0.16014239
  23         0.00000000
  24        -0.09569879
  25         0.00000000
  26         0.00000000
  27        -0.10703342
  28         0.02250372
  29         0.00000000
  30        -0.00000000
  31         0.00000000
  32         0.00000000
  33         0.00000000
  34         0.00000000
  35        -0.00000000
  36        -0.00000000
  37        -0.00000000
  38         0.00000000
  39         1.04880084
  40        -0.50455503
  41         0.01439686
  42        -0.04168880
  43         0.00000000
  44         1.04879447
  45        -0.50454088
  46         0.02266672
  47         0.03783406
  48         0.00000000
Sym=    17a' 
Ene=     0.7149
Spin= Alpha
Occup=    0.00000
   1        -0.37456229
   2        -1.88320395
   3         2.10665147
   4        -0.82597073
   5         0.60409407
   6         0.00000000
   7         0.99622785
   8        -0.80078987
   9         0.00000000
  10        -0.06392654
  11         0.00000000
  12         0.00000000
  13         0.05458253
  14        -0.00889451
  15        -0.00000000
  16        -0.00000000
  17         0.00000000
  18        -0.00000000
  19         0.00000000
  20         0.00000000
  21         0.00000000
  22        -0.00000000
  23         0.00000000
  24         0.00000000
  25         0.00000000
  26         0.00000000
  27         0.00000000
  28        -0.00000000
  29         0.82425586
  30        -1.01988524
  31         0.05549601
  32         0.02581982
  33         0.00000000
  34         0.43247607
  35        -0.22336634
  36         0.05450646
  37        -0.05062446
  38         0.00000000
  39        -0.00000000
  40         0.00000000
  41         0.00000000
  42         0.00000000
  43         0.00000000
  44        -0.00000000
  45         0.00000000
  46        -0.00000000
  47        -0.00000000
  48         0.00000000
Sym=    18a' 
Ene=     0.7222
Spin= Alpha
Occup=    0.00000
   1        -0.16464181
   2        -0.81723984
   3         0.95665393
   4        -0.42727050
   5        -1.38242024
   6         0.00000000
   7         0.49228686
   8         1.79287971
   9         0.00000000
  10        -0.02849233
  11         0.00000000
  12         0.00000000
  13         0.02771449
  14         0.02874270
  15        -0.00000000
  16        -0.00000000
  17         0.00000000
  18        -0.00000000
  19        -0.00000000
  20         0.00000000
  21         0.00000000
  22        -0.00000000
  23         0.00000000
  24         0.00000000
  25         0.00000000
  26         0.00000000
  27         0.00000000
  28        -0.00000000
  29         0.07184746
  30         0.33683922
  31         0.03507733
  32         0.03334815
  33         0.00000000
  34         0.46155939
  35        -0.91496641
  36        -0.00289280
  37         0.01022246
  38         0.00000000
  39        -0.00000000
  40         0.00000000
  41         0.00000000
  42         0.00000000
  43         0.00000000
  44        -0.00000000
  45         0.00000000
  46         0.00000000
  47        -0.00000000
  48         0.00000000
Sym=    19a' 
Ene=     0.7715
Spin= Alpha
Occup=    0.00000
   1        -0.00000000
   2        -0.00000000
   3         0.00000000
   4         0.00000000
   5         0.00000000
   6         0.00000000
   7        -0.00000000
   8         0.00000000
   9         0.00000000
  10         0.00000000
  11         0.00000000
  12         0.00000000
  13        -0.00000000
  14        -0.00000000
  15         0.22784099
  16         0.92456970
  17        -1.13730216
  18        -1.12416668
  19         0.11691114
  20         0.00000000
  21         0.94648310
  22        -0.09844239
  23         0.00000000
  24        -0.18780060
  25         0.00000000
  26         0.00000000
  27        -0.15273507
  28         0.03211269
  29        -0.00000000
  30        -0.00000000
  31         0.00000000
  32        -0.00000000
  33         0.00000000
  34         0.00000000
  35        -0.00000000
  36         0.00000000
  37         0.00000000
  38         0.00000000
  39         0.82076830
  40        -0.62422574
  41        -0.03163344
  42        -0.17743694
  43         0.00000000
  44         0.82076413
  45        -0.62420241
  46         0.00555140
  47         0.18014808
  48         0.00000000
Sym=    20a' 
Ene=     0.9025
Spin= Alpha
Occup=    0.00000
   1        -0.00000000
   2         0.00000000
   3         0.00000000
   4         0.00000000
   5         0.00000000
   6         0.00000000
   7        -0.00000000
   8         0.00000000
   9         0.00000000
  10         0.00000000
  11         0.00000000
  12         0.00000000
  13        -0.00000000
  14        -0.00000000
  15         0.00000493
  16         0.00002084
  17        -0.00002870
  18        -0.12301895
  19        -1.18295342
  20         0.00000000
  21         0.22608155
  22         2.17405802
  23         0.00000000
  24        -0.00000126
  25         0.00000000
  26         0.00000000
  27         0.08004310
  28         0.38069736
  29        -0.00000000
  30        -0.00000000
  31         0.00000000
  32        -0.00000000
  33         0.00000000
  34         0.00000000
  35        -0.00000000
  36         0.00000000
  37         0.00000000
  38         0.00000000
  39        -0.54133625
  40         1.77270477
  41        -0.15880409
  42         0.21652515
  43         0.00000000
  44         0.54134413
  45        -1.77270102
  46         0.19995689
  47         0.17921822
  48         0.00000000
Sym=    21a' 
Ene=     0.9194
Spin= Alpha
Occup=    0.00000
   1         0.56685620
   2         2.66872916
   3        -3.12705570
   4        -0.87412088
   5         0.02620910
   6         0.00000000
   7         1.39468167
   8        -0.09046713
   9         0.00000000
  10        -0.16332041
  11         0.00000000
  12         0.00000000
  13         0.17567952
  14        -0.03516726
  15        -0.00000000
  16        -0.00000000
  17         0.00000000
  18        -0.00000000
  19         0.00000000
  20         0.00000000
  21         0.00000000
  22        -0.00000000
  23         0.00000000
  24        -0.00000000
  25         0.00000000
  26         0.00000000
  27        -0.00000000
  28         0.00000000
  29         0.66371749
  30        -0.21902877
  31        -0.01988429
  32         0.10076346
  33         0.00000000
  34         0.58400817
  35        -0.04572841
  36         0.00836488
  37        -0.11819650
  38         0.00000000
  39        -0.00000000
  40        -0.00000000
  41         0.00000000
  42        -0.00000000
  43         0.00000000
  44         0.00000000
  45        -0.00000000
  46         0.00000000
  47         0.00000000
  48         0.00000000
Sym=    22a' 
Ene=     1.0460
Spin= Alpha
Occup=    0.00000
   1         0.00000000
   2         0.00000000
   3        -0.00000000
   4        -0.00000000
   5         0.00000000
   6         0.00000000
   7         0.00000000
   8         0.00000000
   9         0.00000000
  10        -0.00000000
  11         0.00000000
  12         0.00000000
  13        -0.00000000
  14        -0.00000000
  15         0.72916227
  16         3.39704062
  17        -5.60912760
  18         0.26394924
  19        -0.02744516
  20         0.00000000
  21        -0.96057620
  22         0.09988183
  23         0.00000000
  24         0.12250681
  25         0.00000000
  26         0.00000000
  27         0.05416629
  28        -0.01139172
  29         0.00000000
  30        -0.00000000
  31        -0.00000000
  32        -0.00000000
  33         0.00000000
  34         0.00000000
  35        -0.00000000
  36         0.00000000
  37         0.00000000
  38         0.00000000