[Molden Format]
[N_Atoms]
                   14
[Atoms] (AU)
C1          1      6          -3.51113185     -0.94600207      0.00000000
C1          2      6           3.51113185      0.94600207      0.00000000
H2          3      1          -3.31970916     -2.98778643      0.00000000
H2          4      1           3.31970916      2.98778643      0.00000000
C3          5      6          -5.84207753      0.08118943      0.00000000
C3          6      6           5.84207753     -0.08118943      0.00000000
H4          7      1          -6.11958931      2.11037843      0.00000000
H4          8      1           6.11958931     -2.11037843      0.00000000
H5          9      1          -7.51974581     -1.08721401      0.00000000
H5         10      1           7.51974581      1.08721401      0.00000000
C6         11      6          -1.16860561      0.51937008      0.00000000
C6         12      6           1.16860561     -0.51937008      0.00000000
H7         13      1          -1.35467845      2.56261761      0.00000000
H7         14      1           1.35467845     -2.56261761      0.00000000
[Charge] (Mulliken)
   0.0000000000000000     
   0.0000000000000000     
   0.0000000000000000     
   0.0000000000000000     
   0.0000000000000000     
   0.0000000000000000     
   0.0000000000000000     
   0.0000000000000000     
   0.0000000000000000     
   0.0000000000000000     
   0.0000000000000000     
   0.0000000000000000     
   0.0000000000000000     
   0.0000000000000000     
[GTO] (AU)
   1
   s   6
  3.047524880E+03  1.834737132E-03
  4.573695180E+02  1.403732281E-02
  1.039486850E+02  6.884262227E-02
  2.921015530E+01  2.321844432E-01
  9.286662960E+00  4.679413484E-01
  3.163926960E+00  3.623119853E-01
   s   3
  7.868272350E+00 -1.193324198E-01
  1.881288540E+00 -1.608541517E-01
  5.442492580E-01  1.143456438E+00
   s   1
  1.687144782E-01  1.000000000E+00
   p   3
  7.868272350E+00  6.899906659E-02
  1.881288540E+00  3.164239610E-01
  5.442492580E-01  7.443082909E-01
   p   1
  1.687144782E-01  1.000000000E+00
   d   1
  8.000000000E-01  1.000000000E+00
 
   2
   s   6
  3.047524880E+03  1.834737132E-03
  4.573695180E+02  1.403732281E-02
  1.039486850E+02  6.884262227E-02
  2.921015530E+01  2.321844432E-01
  9.286662960E+00  4.679413484E-01
  3.163926960E+00  3.623119853E-01
   s   3
  7.868272350E+00 -1.193324198E-01
  1.881288540E+00 -1.608541517E-01
  5.442492580E-01  1.143456438E+00
   s   1
  1.687144782E-01  1.000000000E+00
   p   3
  7.868272350E+00  6.899906659E-02
  1.881288540E+00  3.164239610E-01
  5.442492580E-01  7.443082909E-01
   p   1
  1.687144782E-01  1.000000000E+00
   d   1
  8.000000000E-01  1.000000000E+00
 
   3
   s   3
  1.873113696E+01  3.349460434E-02
  2.825394365E+00  2.347269535E-01
  6.401216923E-01  8.137573261E-01
   s   1
  1.612777588E-01  1.000000000E+00
 
   4
   s   3
  1.873113696E+01  3.349460434E-02
  2.825394365E+00  2.347269535E-01
  6.401216923E-01  8.137573261E-01
   s   1
  1.612777588E-01  1.000000000E+00
 
   5
   s   6
  3.047524880E+03  1.834737132E-03
  4.573695180E+02  1.403732281E-02
  1.039486850E+02  6.884262227E-02
  2.921015530E+01  2.321844432E-01
  9.286662960E+00  4.679413484E-01
  3.163926960E+00  3.623119853E-01
   s   3
  7.868272350E+00 -1.193324198E-01
  1.881288540E+00 -1.608541517E-01
  5.442492580E-01  1.143456438E+00
   s   1
  1.687144782E-01  1.000000000E+00
   p   3
  7.868272350E+00  6.899906659E-02
  1.881288540E+00  3.164239610E-01
  5.442492580E-01  7.443082909E-01
   p   1
  1.687144782E-01  1.000000000E+00
   d   1
  8.000000000E-01  1.000000000E+00
 
   6
   s   6
  3.047524880E+03  1.834737132E-03
  4.573695180E+02  1.403732281E-02
  1.039486850E+02  6.884262227E-02
  2.921015530E+01  2.321844432E-01
  9.286662960E+00  4.679413484E-01
  3.163926960E+00  3.623119853E-01
   s   3
  7.868272350E+00 -1.193324198E-01
  1.881288540E+00 -1.608541517E-01
  5.442492580E-01  1.143456438E+00
   s   1
  1.687144782E-01  1.000000000E+00
   p   3
  7.868272350E+00  6.899906659E-02
  1.881288540E+00  3.164239610E-01
  5.442492580E-01  7.443082909E-01
   p   1
  1.687144782E-01  1.000000000E+00
   d   1
  8.000000000E-01  1.000000000E+00
 
   7
   s   3
  1.873113696E+01  3.349460434E-02
  2.825394365E+00  2.347269535E-01
  6.401216923E-01  8.137573261E-01
   s   1
  1.612777588E-01  1.000000000E+00
 
   8
   s   3
  1.873113696E+01  3.349460434E-02
  2.825394365E+00  2.347269535E-01
  6.401216923E-01  8.137573261E-01
   s   1
  1.612777588E-01  1.000000000E+00
 
   9
   s   3
  1.873113696E+01  3.349460434E-02
  2.825394365E+00  2.347269535E-01
  6.401216923E-01  8.137573261E-01
   s   1
  1.612777588E-01  1.000000000E+00
 
  10
   s   3
  1.873113696E+01  3.349460434E-02
  2.825394365E+00  2.347269535E-01
  6.401216923E-01  8.137573261E-01
   s   1
  1.612777588E-01  1.000000000E+00
 
  11
   s   6
  3.047524880E+03  1.834737132E-03
  4.573695180E+02  1.403732281E-02
  1.039486850E+02  6.884262227E-02
  2.921015530E+01  2.321844432E-01
  9.286662960E+00  4.679413484E-01
  3.163926960E+00  3.623119853E-01
   s   3
  7.868272350E+00 -1.193324198E-01
  1.881288540E+00 -1.608541517E-01
  5.442492580E-01  1.143456438E+00
   s   1
  1.687144782E-01  1.000000000E+00
   p   3
  7.868272350E+00  6.899906659E-02
  1.881288540E+00  3.164239610E-01
  5.442492580E-01  7.443082909E-01
   p   1
  1.687144782E-01  1.000000000E+00
   d   1
  8.000000000E-01  1.000000000E+00
 
  12
   s   6
  3.047524880E+03  1.834737132E-03
  4.573695180E+02  1.403732281E-02
  1.039486850E+02  6.884262227E-02
  2.921015530E+01  2.321844432E-01
  9.286662960E+00  4.679413484E-01
  3.163926960E+00  3.623119853E-01
   s   3
  7.868272350E+00 -1.193324198E-01
  1.881288540E+00 -1.608541517E-01
  5.442492580E-01  1.143456438E+00
   s   1
  1.687144782E-01  1.000000000E+00
   p   3
  7.868272350E+00  6.899906659E-02
  1.881288540E+00  3.164239610E-01
  5.442492580E-01  7.443082909E-01
   p   1
  1.687144782E-01  1.000000000E+00
   d   1
  8.000000000E-01  1.000000000E+00
 
  13
   s   3
  1.873113696E+01  3.349460434E-02
  2.825394365E+00  2.347269535E-01
  6.401216923E-01  8.137573261E-01
   s   1
  1.612777588E-01  1.000000000E+00
 
  14
   s   3
  1.873113696E+01  3.349460434E-02
  2.825394365E+00  2.347269535E-01
  6.401216923E-01  8.137573261E-01
   s   1
  1.612777588E-01  1.000000000E+00
 
[MO]
Sym=     1ag 
Ene=   -11.3530
Spin= Alpha
Occup=    2.00000
   1         0.39543637
   2         0.00858978
   3         0.00109908
   4         0.00050371
   5         0.00085449
   6         0.00000000
   7         0.00031457
   8         0.00053363
   9         0.00000000
  10         0.00000000
  11        -0.00000000
  12        -0.00000000
  13         0.00000000
  14         0.00000000
  15         0.00000000
  16         0.39543637
  17         0.00858978
  18         0.00109908
  19        -0.00050371
  20        -0.00085449
  21         0.00000000
  22        -0.00031457
  23        -0.00053363
  24         0.00000000
  25         0.00000000
  26        -0.00000000
  27        -0.00000000
  28         0.00000000
  29         0.00000000
  30         0.00000000
  31         0.00098812
  32         0.00110329
  33         0.00098812
  34         0.00110329
  35         0.24723616
  36         0.00536249
  37         0.00067821
  38         0.00109835
  39        -0.00039455
  40         0.00000000
  41         0.00068592
  42        -0.00024640
  43         0.00000000
  44         0.00000000
  45         0.00000000
  46         0.00000000
  47        -0.00000000
  48         0.00000000
  49         0.00000000
  50         0.24723616
  51         0.00536249
  52         0.00067821
  53        -0.00109835
  54         0.00039455
  55         0.00000000
  56        -0.00068592
  57         0.00024640
  58         0.00000000
  59         0.00000000
  60         0.00000000
  61         0.00000000
  62        -0.00000000
  63         0.00000000
  64         0.00000000
  65         0.00061030
  66         0.00068143
  67         0.00061030
  68         0.00068143
  69         0.00058201
  70         0.00064984
  71         0.00058201
  72         0.00064984
  73         0.52452433
  74         0.01130564
  75         0.00135964
  76         0.00057202
  77        -0.00098070
  78         0.00000000
  79         0.00035722
  80        -0.00061245
  81         0.00000000
  82        -0.00000000
  83        -0.00000000
  84         0.00000000
  85        -0.00000000
  86         0.00000000
  87         0.00000000
  88         0.52452433
  89         0.01130564
  90         0.00135964
  91        -0.00057202
  92         0.00098070
  93         0.00000000
  94        -0.00035722
  95         0.00061245
  96         0.00000000
  97        -0.00000000
  98        -0.00000000
  99         0.00000000
 100        -0.00000000
 101         0.00000000
 102         0.00000000
 103         0.00128779
 104         0.00143788
 105         0.00128779
 106         0.00143788
Sym=     2ag 
Ene=   -11.3460
Spin= Alpha
Occup=    2.00000
   1        -0.29102620
   2        -0.00554517
   3         0.00005574
   4         0.00201631
   5         0.00000707
   6         0.00000000
   7         0.00125919
   8         0.00000441
   9         0.00000000
  10         0.00000000
  11         0.00000000
  12         0.00000000
  13         0.00000000
  14         0.00000000
  15         0.00000000
  16        -0.29102620
  17        -0.00554517
  18         0.00005574
  19        -0.00201631
  20        -0.00000707
  21         0.00000000
  22        -0.00125919
  23        -0.00000441
  24         0.00000000
  25         0.00000000
  26         0.00000000
  27         0.00000000
  28         0.00000000
  29         0.00000000
  30         0.00000000
  31        -0.00055413
  32        -0.00061872
  33        -0.00055413
  34        -0.00061872
  35        -0.46562208
  36        -0.00908780
  37        -0.00015121
  38        -0.00056398
  39         0.00032288
  40         0.00000000
  41        -0.00035221
  42         0.00020164
  43         0.00000000
  44        -0.00000000
  45        -0.00000000
  46        -0.00000000
  47        -0.00000000
  48         0.00000000
  49         0.00000000
  50        -0.46562208
  51        -0.00908780
  52        -0.00015121
  53         0.00056398
  54        -0.00032288
  55         0.00000000
  56         0.00035221
  57        -0.00020164
  58         0.00000000
  59        -0.00000000
  60        -0.00000000
  61        -0.00000000
  62        -0.00000000
  63         0.00000000
  64         0.00000000
  65        -0.00094668
  66        -0.00105702
  67        -0.00094668
  68        -0.00105702
  69        -0.00097608
  70        -0.00108985
  71        -0.00097608
  72        -0.00108985
  73         0.43891203
  74         0.00839884
  75        -0.00004412
  76         0.00160129
  77        -0.00013914
  78         0.00000000
  79         0.00100001
  80        -0.00008689
  81         0.00000000
  82        -0.00000000
  83         0.00000000
  84        -0.00000000
  85         0.00000000
  86         0.00000000
  87         0.00000000
  88         0.43891203
  89         0.00839884
  90        -0.00004412
  91        -0.00160129
  92         0.00013914
  93         0.00000000
  94        -0.00100001
  95         0.00008689
  96         0.00000000
  97        -0.00000000
  98         0.00000000
  99        -0.00000000
 100         0.00000000
 101         0.00000000
 102         0.00000000
 103         0.00084559
 104         0.00094415
 105         0.00084559
 106         0.00094415
Sym=     3ag 
Ene=   -11.3300
Spin= Alpha
Occup=    2.00000
   1        -0.50371270
   2        -0.00825251
   3         0.00159411
   4        -0.00076108
   5         0.00065827
   6         0.00000000
   7        -0.00047530
   8         0.00041109
   9         0.00000000
  10        -0.00000000
  11         0.00000000
  12         0.00000000
  13         0.00000000
  14         0.00000000
  15         0.00000000
  16        -0.50371270
  17        -0.00825251
  18         0.00159411
  19         0.00076108
  20        -0.00065827
  21         0.00000000
  22         0.00047530
  23        -0.00041109
  24         0.00000000
  25        -0.00000000
  26         0.00000000
  27         0.00000000
  28         0.00000000
  29         0.00000000
  30         0.00000000
  31        -0.00079118
  32        -0.00088339
  33        -0.00079118
  34        -0.00088339
  35         0.46571319
  36         0.00774610
  37        -0.00134453
  38        -0.00113129
  39         0.00052533
  40         0.00000000
  41        -0.00070649
  42         0.00032807
  43         0.00000000
  44         0.00000000
  45         0.00000000
  46         0.00000000
  47        -0.00000000
  48         0.00000000
  49         0.00000000
  50         0.46571319
  51         0.00774610
  52        -0.00134453
  53         0.00113129
  54        -0.00052533
  55         0.00000000
  56         0.00070649
  57        -0.00032807
  58         0.00000000
  59         0.00000000
  60         0.00000000
  61         0.00000000
  62        -0.00000000
  63         0.00000000
  64         0.00000000
  65         0.00077393
  66         0.00086413
  67         0.00077393
  68         0.00086413
  69         0.00076682
  70         0.00085619
  71         0.00076682
  72         0.00085619
  73         0.16030652
  74         0.00253595
  75        -0.00060799
  76         0.00098885
  77         0.00036522
  78         0.00000000
  79         0.00061754
  80         0.00022808
  81         0.00000000
  82        -0.00000000
  83        -0.00000000
  84        -0.00000000
  85         0.00000000
  86         0.00000000
  87         0.00000000
  88         0.16030652
  89         0.00253595
  90        -0.00060799
  91        -0.00098885
  92        -0.00036522
  93         0.00000000
  94        -0.00061754
  95        -0.00022808
  96         0.00000000
  97        -0.00000000
  98        -0.00000000
  99        -0.00000000
 100         0.00000000
 101         0.00000000
 102         0.00000000
 103         0.00023028
 104         0.00025712
 105         0.00023028
 106         0.00025712
Sym=     4ag 
Ene=    -1.6220
Spin= Alpha
Occup=    2.00000
   1        -0.09496635
   2         0.11887976
   3         0.13438864
   4         0.02216300
   5         0.01864068
   6         0.00000000
   7         0.01384078
   8         0.01164110
   9         0.00000000
  10         0.00000000
  11         0.00000000
  12        -0.00000000
  13         0.00000000
  14         0.00000000
  15         0.00000000
  16        -0.09496635
  17         0.11887976
  18         0.13438864
  19        -0.02216300
  20        -0.01864068
  21         0.00000000
  22        -0.01384078
  23        -0.01164110
  24         0.00000000
  25         0.00000000
  26         0.00000000
  27        -0.00000000
  28         0.00000000
  29         0.00000000
  30         0.00000000
  31         0.05027112
  32         0.05613031
  33         0.05027112
  34         0.05613031
  35        -0.05932772
  36         0.07538646
  37         0.08520213
  38         0.03325083
  39        -0.00537452
  40         0.00000000
  41         0.02076513
  42        -0.00335639
  43         0.00000000
  44         0.00000000
  45        -0.00000000
  46        -0.00000000
  47        -0.00000000
  48         0.00000000
  49         0.00000000
  50        -0.05932772
  51         0.07538646
  52         0.08520213
  53        -0.03325083
  54         0.00537452
  55         0.00000000
  56        -0.02076513
  57         0.00335639
  58         0.00000000
  59         0.00000000
  60        -0.00000000
  61        -0.00000000
  62        -0.00000000
  63         0.00000000
  64         0.00000000
  65         0.03234598
  66         0.03611596
  67         0.03234598
  68         0.03611596
  69         0.02622464
  70         0.02928117
  71         0.02622464
  72         0.02928117
  73        -0.11895797
  74         0.14839543
  75         0.16776372
  76         0.01224275
  77        -0.01919527
  78         0.00000000
  79         0.00764559
  80        -0.01198743
  81         0.00000000
  82        -0.00000000
  83        -0.00000000
  84        -0.00000000
  85        -0.00000000
  86         0.00000000
  87         0.00000000
  88        -0.11895797
  89         0.14839543
  90         0.16776372
  91        -0.01224275
  92         0.01919527
  93         0.00000000
  94        -0.00764559
  95         0.01198743
  96         0.00000000
  97        -0.00000000
  98        -0.00000000
  99        -0.00000000
 100        -0.00000000
 101         0.00000000
 102         0.00000000
 103         0.06286983
 104         0.07019742
 105         0.06286983
 106         0.07019742
Sym=     5ag 
Ene=    -1.2913
Spin= Alpha
Occup=    2.00000
   1         0.03769266
   2        -0.04842755
   3        -0.05472407
   4         0.10465600
   5        -0.00272667
   6         0.00000000
   7         0.06535762
   8        -0.00170280
   9         0.00000000
  10         0.00000000
  11        -0.00000000
  12         0.00000000
  13        -0.00000000
  14         0.00000000
  15         0.00000000
  16         0.03769266
  17        -0.04842755
  18        -0.05472407
  19        -0.10465600
  20         0.00272667
  21         0.00000000
  22        -0.06535762
  23         0.00170280
  24         0.00000000
  25         0.00000000
  26        -0.00000000
  27         0.00000000
  28        -0.00000000
  29         0.00000000
  30         0.00000000
  31        -0.01692801
  32        -0.01890100
  33        -0.01692801
  34        -0.01890100
  35         0.11409290
  36        -0.15002495
  37        -0.16947383
  38         0.00948460
  39         0.01252444
  40         0.00000000
  41         0.00592313
  42         0.00782151
  43         0.00000000
  44        -0.00000000
  45        -0.00000000
  46         0.00000000
  47        -0.00000000
  48         0.00000000
  49         0.00000000
  50         0.11409290
  51        -0.15002495
  52        -0.16947383
  53        -0.00948460
  54        -0.01252444
  55         0.00000000
  56        -0.00592313
  57        -0.00782151
  58         0.00000000
  59        -0.00000000
  60        -0.00000000
  61         0.00000000
  62        -0.00000000
  63         0.00000000
  64         0.00000000
  65        -0.06741557
  66        -0.07527298
  67        -0.06741557
  68        -0.07527298
  69        -0.07909987
  70        -0.08831910
  71        -0.07909987
  72        -0.08831910
  73        -0.08971843
  74         0.11430755
  75         0.12918579
  76         0.06687477
  77        -0.01274317
  78         0.00000000
  79         0.04176326
  80        -0.00795810
  81         0.00000000
  82         0.00000000
  83        -0.00000000
  84        -0.00000000
  85         0.00000000
  86         0.00000000
  87         0.00000000
  88        -0.08971843
  89         0.11430755
  90         0.12918579
  91        -0.06687477
  92         0.01274317
  93         0.00000000
  94        -0.04176326
  95         0.00795810
  96         0.00000000
  97         0.00000000
  98        -0.00000000
  99        -0.00000000
 100         0.00000000
 101         0.00000000
 102         0.00000000
 103         0.04538103
 104         0.05067027
 105         0.04538103
 106         0.05067027
Sym=     6ag 
Ene=    -0.9356
Spin= Alpha
Occup=    2.00000
   1         0.07503256
   2        -0.10981782
   3        -0.12387276
   4         0.00973656
   5         0.14086988
   6         0.00000000
   7         0.00608048
   8         0.08797316
   9         0.00000000
  10        -0.00000000
  11        -0.00000000
  12        -0.00000000
  13        -0.00000000
  14         0.00000000
  15         0.00000000
  16         0.07503256
  17        -0.10981782
  18        -0.12387276
  19        -0.00973656
  20        -0.14086988
  21         0.00000000
  22        -0.00608048
  23        -0.08797316
  24         0.00000000
  25        -0.00000000
  26        -0.00000000
  27        -0.00000000
  28        -0.00000000
  29         0.00000000
  30         0.00000000
  31        -0.12618222
  32        -0.14088898
  33        -0.12618222
  34        -0.14088898
  35        -0.03834463
  36         0.05809214
  37         0.06549819
  38        -0.05010214
  39         0.13397806
  40         0.00000000
  41        -0.03128876
  42         0.08366923
  43         0.00000000
  44        -0.00000000
  45        -0.00000000
  46        -0.00000000
  47        -0.00000000
  48         0.00000000
  49         0.00000000
  50        -0.03834463
  51         0.05809214
  52         0.06549819
  53         0.05010214
  54        -0.13397806
  55         0.00000000
  56         0.03128876
  57        -0.08366923
  58         0.00000000
  59        -0.00000000
  60        -0.00000000
  61        -0.00000000
  62        -0.00000000
  63         0.00000000
  64         0.00000000
  65         0.10324113
  66         0.11527406
  67         0.10324113
  68         0.11527406
  69         0.01350030
  70         0.01507379
  71         0.01350030
  72         0.01507379
  73        -0.03660702
  74         0.05406447
  75         0.06097674
  76         0.01340851
  77         0.05462060
  78         0.00000000
  79         0.00837361
  80         0.03411053
  81         0.00000000
  82        -0.00000000
  83        -0.00000000
  84        -0.00000000
  85         0.00000000
  86         0.00000000
  87         0.00000000
  88        -0.03660702
  89         0.05406447
  90         0.06097674
  91        -0.01340851
  92        -0.05462060
  93         0.00000000
  94        -0.00837361
  95        -0.03411053
  96         0.00000000
  97        -0.00000000
  98        -0.00000000
  99        -0.00000000
 100         0.00000000
 101         0.00000000
 102         0.00000000
 103         0.05443455
 104         0.06077899
 105         0.05443455
 106         0.06077899
Sym=     7ag 
Ene=    -0.7894
Spin= Alpha
Occup=    2.00000
   1         0.06201370
   2        -0.09028175
   3        -0.10184342
   4         0.01068694
   5        -0.10799355
   6         0.00000000
   7         0.00667399
   8        -0.06744192
   9         0.00000000
  10        -0.00000000
  11         0.00000000
  12        -0.00000000
  13         0.00000000
  14         0.00000000
  15         0.00000000
  16         0.06201370
  17        -0.09028175
  18        -0.10184342
  19        -0.01068694
  20         0.10799355
  21         0.00000000
  22        -0.00667399
  23         0.06744192
  24         0.00000000
  25        -0.00000000
  26         0.00000000
  27        -0.00000000
  28         0.00000000
  29         0.00000000
  30         0.00000000
  31         0.01275676
  32         0.01424359
  33         0.01275676
  34         0.01424359
  35        -0.01726608
  36         0.03433331
  37         0.03859489
  38        -0.19776967
  39        -0.08044354
  40         0.00000000
  41        -0.12350705
  42        -0.05023695
  43         0.00000000
  44        -0.00000000
  45        -0.00000000
  46        -0.00000000
  47         0.00000000
  48         0.00000000
  49         0.00000000
  50        -0.01726608
  51         0.03433331
  52         0.03859489
  53         0.19776967
  54         0.08044354
  55         0.00000000
  56         0.12350705
  57         0.05023695
  58         0.00000000
  59        -0.00000000
  60        -0.00000000
  61        -0.00000000
  62         0.00000000
  63         0.00000000
  64         0.00000000
  65        -0.01018426
  66        -0.01137126
  67        -0.01018426
  68        -0.01137126
  69         0.13798498
  70         0.15406737
  71         0.13798498
  72         0.15406737
  73        -0.03607018
  74         0.05042690
  75         0.05691533
  76         0.17041425
  77        -0.03476232
  78         0.00000000
  79         0.10642361
  80        -0.02170905
  81         0.00000000
  82        -0.00000000
  83        -0.00000000
  84        -0.00000000
  85        -0.00000000
  86         0.00000000
  87         0.00000000
  88        -0.03607018
  89         0.05042690
  90         0.05691533
  91        -0.17041425
  92         0.03476232
  93         0.00000000
  94        -0.10642361
  95         0.02170905
  96         0.00000000
  97        -0.00000000
  98        -0.00000000
  99        -0.00000000
 100        -0.00000000
 101         0.00000000
 102         0.00000000
 103        -0.00121082
 104        -0.00135194
 105        -0.00121082
 106        -0.00135194
Sym=     8ag 
Ene=    -0.6079
Spin= Alpha
Occup=    2.00000
   1         0.00659737
   2        -0.02078922
   3        -0.02328708
   4        -0.11798327
   5         0.10310196
   6         0.00000000
   7        -0.07368049
   8         0.06438712
   9         0.00000000
  10         0.00000000
  11        -0.00000000
  12        -0.00000000
  13         0.00000000
  14         0.00000000
  15         0.00000000
  16         0.00659737
  17        -0.02078922
  18        -0.02328708
  19         0.11798327
  20        -0.10310196
  21         0.00000000
  22         0.07368049
  23        -0.06438712
  24         0.00000000
  25         0.00000000
  26        -0.00000000
  27        -0.00000000
  28         0.00000000
  29         0.00000000
  30         0.00000000
  31        -0.08594496
  32        -0.09596200
  33        -0.08594496
  34        -0.09596200
  35        -0.00813672
  36         0.00406781
  37         0.00470311
  38         0.03832973
  39        -0.21304991
  40         0.00000000
  41         0.02393690
  42        -0.13304956
  43         0.00000000
  44        -0.00000000
  45         0.00000000
  46         0.00000000
  47        -0.00000000
  48         0.00000000
  49         0.00000000
  50        -0.00813672
  51         0.00406781
  52         0.00470311
  53        -0.03832973
  54         0.21304991
  55         0.00000000
  56        -0.02393690
  57         0.13304956
  58         0.00000000
  59        -0.00000000
  60         0.00000000
  61         0.00000000
  62        -0.00000000
  63         0.00000000
  64         0.00000000
  65        -0.14328143
  66        -0.15998113
  67        -0.14328143
  68        -0.15998113
  69         0.06663152
  70         0.07439754
  71         0.06663152
  72         0.07439754
  73        -0.00830933
  74         0.02671387
  75         0.02991999
  76        -0.05951282
  77         0.15546747
  78         0.00000000
  79        -0.03716572
  80         0.09708935
  81         0.00000000
  82        -0.00000000
  83        -0.00000000
  84         0.00000000
  85        -0.00000000
  86         0.00000000
  87         0.00000000
  88        -0.00830933
  89         0.02671387
  90         0.02991999
  91         0.05951282
  92        -0.15546747
  93         0.00000000
  94         0.03716572
  95        -0.09708935
  96         0.00000000
  97        -0.00000000
  98        -0.00000000
  99         0.00000000
 100        -0.00000000
 101         0.00000000
 102         0.00000000
 103         0.11365357
 104         0.12690009
 105         0.11365357
 106         0.12690009
Sym=     9ag 
Ene=    -0.5272
Spin= Alpha
Occup=    2.00000
   1         0.02093807
   2        -0.03485507
   3        -0.03925439
   4         0.03175712
   5        -0.16395849
   6         0.00000000
   7         0.01983230
   8        -0.10239199
   9         0.00000000
  10        -0.00000000
  11         0.00000000
  12         0.00000000
  13        -0.00000000
  14         0.00000000
  15         0.00000000
  16         0.02093807
  17        -0.03485507
  18        -0.03925439
  19        -0.03175712
  20         0.16395849
  21         0.00000000
  22        -0.01983230
  23         0.10239199
  24         0.00000000
  25        -0.00000000
  26         0.00000000
  27         0.00000000
  28        -0.00000000
  29         0.00000000
  30         0.00000000
  31         0.13148554
  32         0.14681041
  33         0.13148554
  34         0.14681041
  35         0.02583623
  36        -0.04601749
  37        -0.05178702
  38        -0.08494853
  39         0.07993214
  40         0.00000000
  41        -0.05305031
  42         0.04991758
  43         0.00000000
  44         0.00000000
  45        -0.00000000
  46        -0.00000000
  47         0.00000000
  48         0.00000000
  49         0.00000000
  50         0.02583623
  51        -0.04601749
  52        -0.05178702
  53         0.08494853
  54        -0.07993214
  55         0.00000000
  56         0.05305031
  57        -0.04991758
  58         0.00000000
  59         0.00000000
  60        -0.00000000
  61        -0.00000000
  62         0.00000000
  63         0.00000000
  64         0.00000000
  65         0.06041818
  66         0.06746002
  67         0.06041818
  68         0.06746002
  69        -0.00892745
  70        -0.00996796
  71        -0.00892745
  72        -0.00996796
  73         0.03578628
  74        -0.05825943
  75        -0.06562967
  76        -0.10664611
  77         0.23209188
  78         0.00000000
  79        -0.06660044
  80         0.14494126
  81         0.00000000
  82         0.00000000
  83        -0.00000000
  84        -0.00000000
  85        -0.00000000
  86         0.00000000
  87         0.00000000
  88         0.03578628
  89        -0.05825943
  90        -0.06562967
  91         0.10664611
  92        -0.23209188
  93         0.00000000
  94         0.06660044
  95        -0.14494126
  96         0.00000000
  97         0.00000000
  98        -0.00000000
  99        -0.00000000
 100        -0.00000000
 101         0.00000000
 102         0.00000000
 103         0.17901843
 104         0.19988334
 105         0.17901843
 106         0.19988334
Sym=    10ag 
Ene=    -0.4820
Spin= Alpha
Occup=    2.00000
   1         0.02291484
   2        -0.05207387
   3        -0.05846741
   4        -0.25209295
   5        -0.08675047
   6         0.00000000