[Molden Format]
[N_Atoms]
                   14
[Atoms] (AU)
C1          1      6          -3.51113185     -0.94600207      0.00000000
C1          2      6           3.51113185      0.94600207      0.00000000
H2          3      1          -3.31970916     -2.98778643      0.00000000
H2          4      1           3.31970916      2.98778643      0.00000000
C3          5      6          -5.84207753      0.08118943      0.00000000
C3          6      6           5.84207753     -0.08118943      0.00000000
H4          7      1          -6.11958931      2.11037843      0.00000000
H4          8      1           6.11958931     -2.11037843      0.00000000
H5          9      1          -7.51974581     -1.08721401      0.00000000
H5         10      1           7.51974581      1.08721401      0.00000000
C6         11      6          -1.16860561      0.51937008      0.00000000
C6         12      6           1.16860561     -0.51937008      0.00000000
H7         13      1          -1.35467845      2.56261761      0.00000000
H7         14      1           1.35467845     -2.56261761      0.00000000
[Charge] (Mulliken)
 -0.27989493009245336     
 -0.27989493009245336     
  0.37772649750496412     
  0.37772649750496412     
 -0.82029369396853191     
 -0.82029369396853191     
  0.35635062037859022     
  0.35635062037859022     
  0.36705472243270876     
  0.36705472243270876     
 -0.37739136686767338     
 -0.37739136686767338     
  0.37644815061234538     
  0.37644815061234538     
[GTO] (AU)
   1
   s   6
  3.047524880E+03  1.834737132E-03
  4.573695180E+02  1.403732281E-02
  1.039486850E+02  6.884262227E-02
  2.921015530E+01  2.321844432E-01
  9.286662960E+00  4.679413484E-01
  3.163926960E+00  3.623119853E-01
   s   3
  7.868272350E+00 -1.193324198E-01
  1.881288540E+00 -1.608541517E-01
  5.442492580E-01  1.143456438E+00
   s   1
  1.687144782E-01  1.000000000E+00
   p   3
  7.868272350E+00  6.899906659E-02
  1.881288540E+00  3.164239610E-01
  5.442492580E-01  7.443082909E-01
   p   1
  1.687144782E-01  1.000000000E+00
   d   1
  8.000000000E-01  1.000000000E+00
 
   2
   s   6
  3.047524880E+03  1.834737132E-03
  4.573695180E+02  1.403732281E-02
  1.039486850E+02  6.884262227E-02
  2.921015530E+01  2.321844432E-01
  9.286662960E+00  4.679413484E-01
  3.163926960E+00  3.623119853E-01
   s   3
  7.868272350E+00 -1.193324198E-01
  1.881288540E+00 -1.608541517E-01
  5.442492580E-01  1.143456438E+00
   s   1
  1.687144782E-01  1.000000000E+00
   p   3
  7.868272350E+00  6.899906659E-02
  1.881288540E+00  3.164239610E-01
  5.442492580E-01  7.443082909E-01
   p   1
  1.687144782E-01  1.000000000E+00
   d   1
  8.000000000E-01  1.000000000E+00
 
   3
   s   3
  1.873113696E+01  3.349460434E-02
  2.825394365E+00  2.347269535E-01
  6.401216923E-01  8.137573261E-01
   s   1
  1.612777588E-01  1.000000000E+00
 
   4
   s   3
  1.873113696E+01  3.349460434E-02
  2.825394365E+00  2.347269535E-01
  6.401216923E-01  8.137573261E-01
   s   1
  1.612777588E-01  1.000000000E+00
 
   5
   s   6
  3.047524880E+03  1.834737132E-03
  4.573695180E+02  1.403732281E-02
  1.039486850E+02  6.884262227E-02
  2.921015530E+01  2.321844432E-01
  9.286662960E+00  4.679413484E-01
  3.163926960E+00  3.623119853E-01
   s   3
  7.868272350E+00 -1.193324198E-01
  1.881288540E+00 -1.608541517E-01
  5.442492580E-01  1.143456438E+00
   s   1
  1.687144782E-01  1.000000000E+00
   p   3
  7.868272350E+00  6.899906659E-02
  1.881288540E+00  3.164239610E-01
  5.442492580E-01  7.443082909E-01
   p   1
  1.687144782E-01  1.000000000E+00
   d   1
  8.000000000E-01  1.000000000E+00
 
   6
   s   6
  3.047524880E+03  1.834737132E-03
  4.573695180E+02  1.403732281E-02
  1.039486850E+02  6.884262227E-02
  2.921015530E+01  2.321844432E-01
  9.286662960E+00  4.679413484E-01
  3.163926960E+00  3.623119853E-01
   s   3
  7.868272350E+00 -1.193324198E-01
  1.881288540E+00 -1.608541517E-01
  5.442492580E-01  1.143456438E+00
   s   1
  1.687144782E-01  1.000000000E+00
   p   3
  7.868272350E+00  6.899906659E-02
  1.881288540E+00  3.164239610E-01
  5.442492580E-01  7.443082909E-01
   p   1
  1.687144782E-01  1.000000000E+00
   d   1
  8.000000000E-01  1.000000000E+00
 
   7
   s   3
  1.873113696E+01  3.349460434E-02
  2.825394365E+00  2.347269535E-01
  6.401216923E-01  8.137573261E-01
   s   1
  1.612777588E-01  1.000000000E+00
 
   8
   s   3
  1.873113696E+01  3.349460434E-02
  2.825394365E+00  2.347269535E-01
  6.401216923E-01  8.137573261E-01
   s   1
  1.612777588E-01  1.000000000E+00
 
   9
   s   3
  1.873113696E+01  3.349460434E-02
  2.825394365E+00  2.347269535E-01
  6.401216923E-01  8.137573261E-01
   s   1
  1.612777588E-01  1.000000000E+00
 
  10
   s   3
  1.873113696E+01  3.349460434E-02
  2.825394365E+00  2.347269535E-01
  6.401216923E-01  8.137573261E-01
   s   1
  1.612777588E-01  1.000000000E+00
 
  11
   s   6
  3.047524880E+03  1.834737132E-03
  4.573695180E+02  1.403732281E-02
  1.039486850E+02  6.884262227E-02
  2.921015530E+01  2.321844432E-01
  9.286662960E+00  4.679413484E-01
  3.163926960E+00  3.623119853E-01
   s   3
  7.868272350E+00 -1.193324198E-01
  1.881288540E+00 -1.608541517E-01
  5.442492580E-01  1.143456438E+00
   s   1
  1.687144782E-01  1.000000000E+00
   p   3
  7.868272350E+00  6.899906659E-02
  1.881288540E+00  3.164239610E-01
  5.442492580E-01  7.443082909E-01
   p   1
  1.687144782E-01  1.000000000E+00
   d   1
  8.000000000E-01  1.000000000E+00
 
  12
   s   6
  3.047524880E+03  1.834737132E-03
  4.573695180E+02  1.403732281E-02
  1.039486850E+02  6.884262227E-02
  2.921015530E+01  2.321844432E-01
  9.286662960E+00  4.679413484E-01
  3.163926960E+00  3.623119853E-01
   s   3
  7.868272350E+00 -1.193324198E-01
  1.881288540E+00 -1.608541517E-01
  5.442492580E-01  1.143456438E+00
   s   1
  1.687144782E-01  1.000000000E+00
   p   3
  7.868272350E+00  6.899906659E-02
  1.881288540E+00  3.164239610E-01
  5.442492580E-01  7.443082909E-01
   p   1
  1.687144782E-01  1.000000000E+00
   d   1
  8.000000000E-01  1.000000000E+00
 
  13
   s   3
  1.873113696E+01  3.349460434E-02
  2.825394365E+00  2.347269535E-01
  6.401216923E-01  8.137573261E-01
   s   1
  1.612777588E-01  1.000000000E+00
 
  14
   s   3
  1.873113696E+01  3.349460434E-02
  2.825394365E+00  2.347269535E-01
  6.401216923E-01  8.137573261E-01
   s   1
  1.612777588E-01  1.000000000E+00
 
[MO]
Sym=     1ag 
Ene=   -11.2400
Spin= Alpha
Occup=    2.00000
   1         0.54938073
   2         0.01511384
   3        -0.00526655
   4         0.00005069
   5         0.00006376
   6         0.00000000
   7         0.00091067
   8        -0.00062898
   9         0.00000000
  10        -0.00096258
  11        -0.00117543
  12        -0.00136509
  13        -0.00014354
  14         0.00000000
  15         0.00000000
  16         0.54938073
  17         0.01511384
  18        -0.00526655
  19        -0.00005069
  20        -0.00006376
  21         0.00000000
  22        -0.00091067
  23         0.00062898
  24         0.00000000
  25        -0.00096258
  26        -0.00117543
  27        -0.00136509
  28        -0.00014354
  29         0.00000000
  30         0.00000000
  31        -0.00015158
  32         0.00078230
  33        -0.00015158
  34         0.00078230
  35         0.03680985
  36         0.00077614
  37         0.00229369
  38        -0.00012074
  39         0.00002730
  40         0.00000000
  41         0.00121390
  42        -0.00009410
  43         0.00000000
  44        -0.00018529
  45        -0.00022082
  46        -0.00015739
  47         0.00003158
  48         0.00000000
  49         0.00000000
  50         0.03680985
  51         0.00077614
  52         0.00229369
  53         0.00012074
  54        -0.00002730
  55         0.00000000
  56        -0.00121390
  57         0.00009410
  58         0.00000000
  59        -0.00018529
  60        -0.00022082
  61        -0.00015739
  62         0.00003158
  63         0.00000000
  64         0.00000000
  65        -0.00009793
  66        -0.00008948
  67        -0.00009793
  68        -0.00008948
  69        -0.00002160
  70         0.00025298
  71        -0.00002160
  72         0.00025298
  73         0.43838001
  74         0.01196695
  75        -0.00171458
  76        -0.00009470
  77        -0.00001441
  78         0.00000000
  79         0.00011856
  80         0.00054435
  81         0.00000000
  82        -0.00100495
  83        -0.00113637
  84        -0.00115431
  85        -0.00015599
  86         0.00000000
  87         0.00000000
  88         0.43838001
  89         0.01196695
  90        -0.00171458
  91         0.00009470
  92         0.00001441
  93         0.00000000
  94        -0.00011856
  95        -0.00054435
  96         0.00000000
  97        -0.00100495
  98        -0.00113637
  99        -0.00115431
 100        -0.00015599
 101         0.00000000
 102         0.00000000
 103        -0.00019408
 104         0.00030007
 105        -0.00019408
 106         0.00030007
Sym=     2ag 
Ene=   -11.2400
Spin= Alpha
Occup=    2.00000
   1        -0.43753318
   2        -0.01205446
   3         0.00739642
   4        -0.00013569
   5        -0.00012133
   6         0.00000000
   7         0.00078361
   8         0.00065620
   9         0.00000000
  10         0.00039100
  11         0.00060508
  12         0.00096205
  13        -0.00008408
  14         0.00000000
  15         0.00000000
  16        -0.43753318
  17        -0.01205446
  18         0.00739642
  19         0.00013569
  20         0.00012133
  21         0.00000000
  22        -0.00078361
  23        -0.00065620
  24         0.00000000
  25         0.00039100
  26         0.00060508
  27         0.00096205
  28        -0.00008408
  29         0.00000000
  30         0.00000000
  31         0.00000478
  32        -0.00106215
  33         0.00000478
  34        -0.00106215
  35        -0.03215920
  36        -0.00084509
  37        -0.00140660
  38         0.00006395
  39        -0.00005620
  40         0.00000000
  41        -0.00055762
  42         0.00019295
  43         0.00000000
  44         0.00023798
  45         0.00021321
  46         0.00007599
  47        -0.00002951
  48         0.00000000
  49         0.00000000
  50        -0.03215920
  51        -0.00084509
  52        -0.00140660
  53        -0.00006395
  54         0.00005620
  55         0.00000000
  56         0.00055762
  57        -0.00019295
  58         0.00000000
  59         0.00023798
  60         0.00021321
  61         0.00007599
  62        -0.00002951
  63         0.00000000
  64         0.00000000
  65         0.00001597
  66         0.00001956
  67         0.00001597
  68         0.00001956
  69         0.00002509
  70         0.00005217
  71         0.00002509
  72         0.00005217
  73         0.55063166
  74         0.01507627
  75        -0.00631073
  76        -0.00021581
  77        -0.00006797
  78         0.00000000
  79         0.00151044
  80         0.00060719
  81         0.00000000
  82        -0.00078045
  83        -0.00103774
  84        -0.00126794
  85         0.00010673
  86         0.00000000
  87         0.00000000
  88         0.55063166
  89         0.01507627
  90        -0.00631073
  91         0.00021581
  92         0.00006797
  93         0.00000000
  94        -0.00151044
  95        -0.00060719
  96         0.00000000
  97        -0.00078045
  98        -0.00103774
  99        -0.00126794
 100         0.00010673
 101         0.00000000
 102         0.00000000
 103        -0.00005606
 104         0.00105070
 105        -0.00005606
 106         0.00105070
Sym=     3ag 
Ene=   -11.2290
Spin= Alpha
Occup=    2.00000
   1        -0.04927202
   2        -0.00155555
   3         0.00363039
   4         0.00013924
   5        -0.00008725
   6         0.00000000
   7        -0.00101490
   8         0.00055405
   9         0.00000000
  10        -0.00016856
  11        -0.00011563
  12         0.00005787
  13         0.00000453
  14         0.00000000
  15         0.00000000
  16        -0.04927202
  17        -0.00155555
  18         0.00363039
  19        -0.00013924
  20         0.00008725
  21         0.00000000
  22         0.00101490
  23        -0.00055405
  24         0.00000000
  25        -0.00016856
  26        -0.00011563
  27         0.00005787
  28         0.00000453
  29         0.00000000
  30         0.00000000
  31        -0.00003369
  32        -0.00014821
  33        -0.00003369
  34        -0.00014821
  35         0.70231171
  36         0.01934371
  37        -0.00832490
  38         0.00003513
  39        -0.00000624
  40         0.00000000
  41        -0.00054983
  42         0.00016376
  43         0.00000000
  44        -0.00116549
  45        -0.00134790
  46        -0.00176581
  47        -0.00011338
  48         0.00000000
  49         0.00000000
  50         0.70231171
  51         0.01934371
  52        -0.00832490
  53        -0.00003513
  54         0.00000624
  55         0.00000000
  56         0.00054983
  57        -0.00016376
  58         0.00000000
  59        -0.00116549
  60        -0.00134790
  61        -0.00176581
  62        -0.00011338
  63         0.00000000
  64         0.00000000
  65        -0.00009316
  66         0.00152117
  67        -0.00009316
  68         0.00152117
  69        -0.00010744
  70         0.00146365
  71        -0.00010744
  72         0.00146365
  73         0.00222421
  74        -0.00002683
  75        -0.00020029
  76         0.00002431
  77        -0.00003391
  78         0.00000000
  79         0.00017396
  80         0.00032334
  81         0.00000000
  82         0.00009594
  83         0.00002033
  84        -0.00001599
  85         0.00004846
  86         0.00000000
  87         0.00000000
  88         0.00222421
  89        -0.00002683
  90        -0.00020029
  91        -0.00002431
  92         0.00003391
  93         0.00000000
  94        -0.00017396
  95        -0.00032334
  96         0.00000000
  97         0.00009594
  98         0.00002033
  99        -0.00001599
 100         0.00004846
 101         0.00000000
 102         0.00000000
 103        -0.00004344
 104        -0.00009847
 105        -0.00004344
 106        -0.00009847
Sym=     4ag 
Ene=    -1.1013
Spin= Alpha
Occup=    2.00000
   1        -0.09170776
   2         0.17677112
   3         0.11146734
   4         0.01896358
   5         0.03482889
   6         0.00000000
   7         0.01156832
   8        -0.00405721
   9         0.00000000
  10         0.01029377
  11         0.00442350
  12        -0.00796727
  13         0.00233721
  14         0.00000000
  15         0.00000000
  16        -0.09170776
  17         0.17677112
  18         0.11146734
  19        -0.01896358
  20        -0.03482889
  21         0.00000000
  22        -0.01156832
  23         0.00405721
  24         0.00000000
  25         0.01029377
  26         0.00442350
  27        -0.00796727
  28         0.00233721
  29         0.00000000
  30         0.00000000
  31         0.04527661
  32         0.00519904
  33         0.04527661
  34         0.00519904
  35        -0.05453813
  36         0.10283113
  37         0.08217971
  38         0.04699815
  39        -0.01447664
  40         0.00000000
  41         0.00739032
  42        -0.00264036
  43         0.00000000
  44         0.00645769
  45         0.00130263
  46        -0.00446348
  47        -0.00243826
  48         0.00000000
  49         0.00000000
  50        -0.05453813
  51         0.10283113
  52         0.08217971
  53        -0.04699815
  54         0.01447664
  55         0.00000000
  56        -0.00739032
  57         0.00264036
  58         0.00000000
  59         0.00645769
  60         0.00130263
  61        -0.00446348
  62        -0.00243826
  63         0.00000000
  64         0.00000000
  65         0.02649078
  66         0.00425583
  67         0.02649078
  68         0.00425583
  69         0.02312594
  70         0.00240368
  71         0.02312594
  72         0.00240368
  73        -0.12013373
  74         0.23000322
  75         0.16008754
  76         0.02828194
  77        -0.04137273
  78         0.00000000
  79        -0.00174181
  80         0.00267998
  81         0.00000000
  82         0.01283938
  83         0.00478975
  84        -0.01006757
  85        -0.00089097
  86         0.00000000
  87         0.00000000
  88        -0.12013373
  89         0.23000322
  90         0.16008754
  91        -0.02828194
  92         0.04137273
  93         0.00000000
  94         0.00174181
  95        -0.00267998
  96         0.00000000
  97         0.01283938
  98         0.00478975
  99        -0.01006757
 100        -0.00089097
 101         0.00000000
 102         0.00000000
 103         0.05879165
 104         0.00635301
 105         0.05879165
 106         0.00635301
Sym=     5ag 
Ene=    -0.9769
Spin= Alpha
Occup=    2.00000
   1         0.05717710
   2        -0.11101678
   3        -0.07499445
   4         0.12908537
   5        -0.01036009
   6         0.00000000
   7         0.02984957
   8         0.00903613
   9         0.00000000
  10        -0.00096711
  11        -0.00126357
  12         0.00350655
  13         0.00990701
  14         0.00000000
  15         0.00000000
  16         0.05717710
  17        -0.11101678
  18        -0.07499445
  19        -0.12908537
  20         0.01036009
  21         0.00000000
  22        -0.02984957
  23        -0.00903613
  24         0.00000000
  25        -0.00096711
  26        -0.00126357
  27         0.00350655
  28         0.00990701
  29         0.00000000
  30         0.00000000
  31        -0.02995107
  32        -0.00386625
  33        -0.02995107
  34        -0.00386625
  35         0.10686881
  36        -0.20270883
  37        -0.17095428
  38        -0.04171915
  39         0.02593400
  40         0.00000000
  41        -0.00374975
  42        -0.00412140
  43         0.00000000
  44        -0.00958680
  45        -0.00678899
  46         0.00899239
  47         0.00223946
  48         0.00000000
  49         0.00000000
  50         0.10686881
  51        -0.20270883
  52        -0.17095428
  53         0.04171915
  54        -0.02593400
  55         0.00000000
  56         0.00374975
  57         0.00412140
  58         0.00000000
  59        -0.00958680
  60        -0.00678899
  61         0.00899239
  62         0.00223946
  63         0.00000000
  64         0.00000000
  65        -0.06165762
  66        -0.01133112
  67        -0.06165762
  68        -0.01133112
  69        -0.06702310
  70        -0.01913052
  71        -0.06702310
  72        -0.01913052
  73        -0.09099024
  74         0.17598585
  75         0.13163500
  76         0.10346762
  77        -0.02247501
  78         0.00000000
  79         0.02860390
  80         0.01477781
  81         0.00000000
  82         0.00414058
  83         0.00430832
  84        -0.00654256
  85        -0.00827248
  86         0.00000000
  87         0.00000000
  88        -0.09099024
  89         0.17598585
  90         0.13163500
  91        -0.10346762
  92         0.02247501
  93         0.00000000
  94        -0.02860390
  95        -0.01477781
  96         0.00000000
  97         0.00414058
  98         0.00430832
  99        -0.00654256
 100        -0.00827248
 101         0.00000000
 102         0.00000000
 103         0.04948134
 104         0.00429199
 105         0.04948134
 106         0.00429199
Sym=     6ag 
Ene=    -0.7590
Spin= Alpha
Occup=    2.00000
   1         0.08814548
   2        -0.17558776
   3        -0.16867179
   4        -0.03242790
   5         0.08389799
   6         0.00000000
   7        -0.01625893
   8         0.04559797
   9         0.00000000
  10         0.00274311
  11        -0.01381947
  12         0.00680938
  13        -0.00007159
  14         0.00000000
  15         0.00000000
  16         0.08814548
  17        -0.17558776
  18        -0.16867179
  19         0.03242790
  20        -0.08389799
  21         0.00000000
  22         0.01625893
  23        -0.04559797
  24         0.00000000
  25         0.00274311
  26        -0.01381947
  27         0.00680938
  28        -0.00007159
  29         0.00000000
  30         0.00000000
  31        -0.12133879
  32        -0.05442180
  33        -0.12133879
  34        -0.05442180
  35        -0.06914810
  36         0.13463663
  37         0.14110379
  38        -0.12654034
  39         0.08323265
  40         0.00000000
  41        -0.05048357
  42         0.02458062
  43         0.00000000
  44         0.00096378
  45         0.01444447
  46        -0.00634462
  47         0.00872154
  48         0.00000000
  49         0.00000000
  50        -0.06914810
  51         0.13463663
  52         0.14110379
  53         0.12654034
  54        -0.08323265
  55         0.00000000
  56         0.05048357
  57        -0.02458062
  58         0.00000000
  59         0.00096378
  60         0.01444447
  61        -0.00634462
  62         0.00872154
  63         0.00000000
  64         0.00000000
  65         0.11311584
  66         0.06144270
  67         0.11311584
  68         0.06144270
  69         0.09095136
  70         0.04359863
  71         0.09095136
  72         0.04359863
  73        -0.03631921
  74         0.07035660
  75         0.06885056
  76         0.12588039
  77         0.03646304
  78         0.00000000
  79         0.03809080
  80         0.01974565
  81         0.00000000
  82        -0.00185229
  83         0.00269600
  84        -0.00217501
  85        -0.01284686
  86         0.00000000
  87         0.00000000
  88        -0.03631921
  89         0.07035660
  90         0.06885056
  91        -0.12588039
  92        -0.03646304
  93         0.00000000
  94        -0.03809080
  95        -0.01974565
  96         0.00000000
  97        -0.00185229
  98         0.00269600
  99        -0.00217501
 100        -0.01284686
 101         0.00000000
 102         0.00000000
 103         0.04399509
 104         0.01949790
 105         0.04399509
 106         0.01949790
Sym=     7ag 
Ene=    -0.6579
Spin= Alpha
Occup=    2.00000
   1        -0.00997255
   2         0.02403143
   3         0.00254399
   4         0.01729389
   5         0.20760163
   6         0.00000000
   7        -0.00078816
   8         0.07382781
   9         0.00000000
  10         0.00050664
  11        -0.00588482
  12         0.00024994
  13         0.00258932
  14         0.00000000
  15         0.00000000
  16        -0.00997255
  17         0.02403143
  18         0.00254399
  19        -0.01729389
  20        -0.20760163
  21         0.00000000
  22         0.00078816
  23        -0.07382781
  24         0.00000000
  25         0.00050664
  26        -0.00588482
  27         0.00024994
  28         0.00258932
  29         0.00000000
  30         0.00000000
  31        -0.10578544
  32        -0.07118297
  33        -0.10578544
  34        -0.07118297
  35         0.00998998
  36        -0.01942726
  37        -0.03238721
  38         0.14940605
  39         0.12562352
  40         0.00000000
  41         0.06094284
  42         0.05773555
  43         0.00000000
  44        -0.00289942
  45        -0.00113781
  46         0.00095967
  47        -0.00842131
  48         0.00000000
  49         0.00000000
  50         0.00998998
  51        -0.01942726
  52        -0.03238721
  53        -0.14940605
  54        -0.12562352
  55         0.00000000
  56        -0.06094284
  57        -0.05773555
  58         0.00000000
  59        -0.00289942
  60        -0.00113781
  61         0.00095967
  62        -0.00842131
  63         0.00000000
  64         0.00000000
  65         0.04863832
  66         0.03057131
  67         0.04863832
  68         0.03057131
  69        -0.11993263
  70        -0.07555224
  71        -0.11993263
  72        -0.07555224
  73         0.00350394
  74        -0.00771972
  75         0.01433465
  76        -0.21634564
  77         0.09203172
  78         0.00000000
  79        -0.07468564
  80         0.03048883
  81         0.00000000
  82        -0.00001518
  83         0.00638472
  84        -0.00064005
  85         0.00720523
  86         0.00000000
  87         0.00000000
  88         0.00350394
  89        -0.00771972
  90         0.01433465
  91         0.21634564
  92        -0.09203172
  93         0.00000000
  94         0.07468564
  95        -0.03048883
  96         0.00000000
  97        -0.00001518
  98         0.00638472
  99        -0.00064005
 100         0.00720523
 101         0.00000000
 102         0.00000000
 103         0.06049680
 104         0.04101024
 105         0.06049680
 106         0.04101024
Sym=     8ag 
Ene=    -0.5637
Spin= Alpha
Occup=    2.00000
   1         0.01080986
   2        -0.02100037
   3        -0.04261481
   4        -0.22185135
   5         0.08528068
   6         0.00000000
   7        -0.06913081
   8         0.05150802
   9         0.00000000
  10         0.00671461
  11        -0.01310864
  12         0.00147275
  13        -0.00293166
  14         0.00000000
  15         0.00000000
  16         0.01080986
  17        -0.02100037
  18        -0.04261481
  19         0.22185135
  20        -0.08528068
  21         0.00000000
  22         0.06913081
  23        -0.05150802
  24         0.00000000
  25         0.00671461
  26        -0.01310864
  27         0.00147275
  28        -0.00293166
  29         0.00000000
  30         0.00000000
  31        -0.08133149
  32        -0.05730928
  33        -0.08133149
  34        -0.05730928
  35        -0.00821005
  36         0.01913658
  37         0.00340186
  38         0.11893154
  39        -0.23786750
  40         0.00000000
  41         0.03854037
  42        -0.12051426
  43         0.00000000
  44         0.01146515
  45        -0.01823870
  46         0.00053400
  47         0.00110981
  48         0.00000000
  49         0.00000000
  50        -0.00821005
  51         0.01913658
  52         0.00340186
  53        -0.11893154
  54         0.23786750
  55         0.00000000
  56        -0.03854037
  57         0.12051426
  58         0.00000000
  59         0.01146515
  60        -0.01823870
  61         0.00053400
  62         0.00110981
  63         0.00000000
  64         0.00000000
  65        -0.15438994
  66        -0.11711034
  67        -0.15438994
  68        -0.11711034
  69         0.03271340
  70         0.01745139
  71         0.03271340
  72         0.01745139
  73        -0.01224231
  74         0.02236625
  75         0.03383445
  76         0.07067437
  77         0.13484306
  78         0.00000000
  79         0.03349245
  80         0.08060578
  81         0.00000000
  82        -0.00585767
  83         0.00896590
  84        -0.00080738
  85        -0.01222712
  86         0.00000000
  87         0.00000000
  88        -0.01224231
  89         0.02236625
  90         0.03383445
  91        -0.07067437
  92        -0.13484306
  93         0.00000000
  94        -0.03349245
  95        -0.08060578
  96         0.00000000
  97        -0.00585767
  98         0.00896590
  99        -0.00080738
 100        -0.01222712
 101         0.00000000
 102         0.00000000
 103         0.09227589
 104         0.05736637
 105         0.09227589
 106         0.05736637
Sym=     9ag 
Ene=    -0.5375
Spin= Alpha
Occup=    2.00000
   1         0.00518272
   2        -0.01173328
   3         0.01256313
   4         0.14791764
   5        -0.05500212
   6         0.00000000
   7         0.07153922
   8        -0.01343870
   9         0.00000000
  10        -0.00610676
  11         0.00960944
  12        -0.00053655
  13         0.01270538
  14         0.00000000
  15         0.00000000
  16         0.00518272
  17        -0.01173328
  18         0.01256313
  19        -0.14791764
  20         0.05500212
  21         0.00000000
  22        -0.07153922
  23         0.01343870
  24         0.00000000
  25        -0.00610676
  26         0.00960944
  27        -0.00053655
  28         0.01270538
  29         0.00000000
  30         0.00000000
  31         0.04545755
  32         0.04845690
  33         0.04545755
  34         0.04845690
  35         0.01510612
  36        -0.03240729
  37        -0.02550393
  38        -0.19891142
  39        -0.05732029
  40         0.00000000
  41        -0.08347376
  42        -0.04059336
  43         0.00000000
  44         0.00465288
  45         0.00040801
  46        -0.00013347
  47         0.01352271
  48         0.00000000
  49         0.00000000
  50         0.01510612
  51        -0.03240729
  52        -0.02550393
  53         0.19891142
  54         0.05732029
  55         0.00000000
  56         0.08347376
  57         0.04059336
  58         0.00000000
  59         0.00465288
  60         0.00040801
  61        -0.00013347
  62         0.01352271
  63         0.00000000
  64         0.00000000
  65        -0.03283922
  66        -0.01509672
  67        -0.03283922
  68        -0.01509672
  69         0.11589928
  70         0.09856276
  71         0.11589928
  72         0.09856276
  73         0.00731772
  74        -0.01680827
  75        -0.00281082
  76        -0.26089724
  77         0.18727662
  78         0.00000000
  79        -0.08550654
  80         0.11105824
  81         0.00000000
  82        -0.01373833
  83         0.02228397
  84        -0.00092739
  85         0.00815954
  86         0.00000000
  87         0.00000000
  88         0.00731772
  89        -0.01680827
  90        -0.00281082
  91         0.26089724
  92        -0.18727662
  93         0.00000000
  94         0.08550654
  95        -0.11105824
  96         0.00000000
  97        -0.01373833
  98         0.02228397
  99        -0.00092739
 100         0.00815954
 101         0.00000000
 102         0.00000000
 103         0.13914382
 104         0.11325123
 105         0.13914382
 106         0.11325123
Sym=    10ag 
Ene=    -0.4895
Spin= Alpha
Occup=    2.00000
   1         0.01491478
   2        -0.03384926
   3        -0.04068274
   4        -0.13900586
   5        -0.19082261
   6         0.00000000