[Molden Format]
[N_Atoms]
                    3
[Atoms] (AU)
H1          1      1           1.63650282      0.94486306      0.00000000
H1          2      1          -1.63650282      0.94486306      0.00000000
O2          3      8           0.00000000      0.00000000      0.00000000
[5D]
[7F]
[9G]
[Charge] (Mulliken)
   0.0000000000000000     
   0.0000000000000000     
   0.0000000000000000     
[GTO] (AU)
   1
   s   6
  8.264000000E+01  2.006000801E-03
  1.241000000E+01  1.534300612E-02
  2.824000000E+00  7.557903017E-02
  7.977000000E-01  2.568751025E-01
  2.581000000E-01  4.973681985E-01
  8.989000000E-02  2.961331182E-01
   s   1
  7.977000000E-01  1.000000000E+00
   s   1
  2.581000000E-01  1.000000000E+00
   s   1
  8.989000000E-02  1.000000000E+00
   p   1
  2.292000000E+00  1.000000000E+00
   p   1
  8.380000000E-01  1.000000000E+00
   p   1
  2.920000000E-01  1.000000000E+00
   d   1
  2.062000000E+00  1.000000000E+00
   d   1
  6.620000000E-01  1.000000000E+00
   f   1
  1.397000000E+00  1.000000000E+00
 
   2
   s   6
  8.264000000E+01  2.006000801E-03
  1.241000000E+01  1.534300612E-02
  2.824000000E+00  7.557903017E-02
  7.977000000E-01  2.568751025E-01
  2.581000000E-01  4.973681985E-01
  8.989000000E-02  2.961331182E-01
   s   1
  7.977000000E-01  1.000000000E+00
   s   1
  2.581000000E-01  1.000000000E+00
   s   1
  8.989000000E-02  1.000000000E+00
   p   1
  2.292000000E+00  1.000000000E+00
   p   1
  8.380000000E-01  1.000000000E+00
   p   1
  2.920000000E-01  1.000000000E+00
   d   1
  2.062000000E+00  1.000000000E+00
   d   1
  6.620000000E-01  1.000000000E+00
   f   1
  1.397000000E+00  1.000000000E+00
 
   3
   s  12
  6.142000000E+04  9.000006336E-05
  9.199000000E+03  6.980004914E-04
  2.091000000E+03  3.664002579E-03
  5.909000000E+02  1.521801071E-02
  1.923000000E+02  5.242303690E-02
  6.932000000E+01  1.459211027E-01
  2.697000000E+01  3.052582149E-01
  1.110000000E+01  3.985082805E-01
  4.682000000E+00  2.169801527E-01
  1.428000000E+00  1.759401239E-02
  5.547000000E-01 -2.502001761E-03
  2.067000000E-01  9.540006716E-04
   s  12
  6.142000000E+04 -2.000000177E-05
  9.199000000E+03 -1.590000141E-04
  2.091000000E+03 -8.290000736E-04
  5.909000000E+02 -3.508000311E-03
  1.923000000E+02 -1.215600108E-02
  6.932000000E+01 -3.626100322E-02
  2.697000000E+01 -8.299200736E-02
  1.110000000E+01 -1.520900135E-01
  4.682000000E+00 -1.153310102E-01
  1.428000000E+00  2.889790256E-01
  5.547000000E-01  5.861280520E-01
  2.067000000E-01  2.776240246E-01
   s   1
  1.428000000E+00  1.000000000E+00
   s   1
  5.547000000E-01  1.000000000E+00
   s   1
  2.067000000E-01  1.000000000E+00
   p   6
  6.342000000E+01  6.043996276E-03
  1.466000000E+01  4.179897424E-02
  4.459000000E+00  1.611429007E-01
  1.531000000E+00  3.567307802E-01
  5.302000000E-01  4.483087238E-01
  1.750000000E-01  2.449398491E-01
   p   1
  1.531000000E+00  1.000000000E+00
   p   1
  5.302000000E-01  1.000000000E+00
   p   1
  1.750000000E-01  1.000000000E+00
   d   1
  3.775000000E+00  1.000000000E+00
   d   1
  1.300000000E+00  1.000000000E+00
   d   1
  4.440000000E-01  1.000000000E+00
   f   1
  2.666000000E+00  1.000000000E+00
   f   1
  8.590000000E-01  1.000000000E+00
   g   1
  1.846000000E+00  1.000000000E+00
 
[MO]
Sym=     1a1 
Ene=   -20.6870
Spin= Alpha
Occup=    2.00000
   1         0.00185240
   2        -0.00001750
   3        -0.00026350
   4        -0.00018849
   5        -0.00000000
   6        -0.00000000
   7         0.00000000
   8         0.00000000
   9         0.00000000
  10         0.00000000
  11         0.00000000
  12         0.00000000
  13         0.00000000
  14         0.00000000
  15         0.00000000
  16         0.00000000
  17        -0.00000000
  18        -0.00000000
  19         0.00000000
  20         0.00000000
  21         0.00000000
  22        -0.00000000
  23        -0.00000000
  24         0.00000000
  25        -0.00000000
  26        -0.00000000
  27         0.00000000
  28         0.00000000
  29         0.00000000
  30         0.00000000
  31         0.00185240
  32        -0.00001750
  33        -0.00026350
  34        -0.00018849
  35         0.00000000
  36        -0.00000000
  37         0.00000000
  38        -0.00000000
  39         0.00000000
  40         0.00000000
  41        -0.00000000
  42         0.00000000
  43         0.00000000
  44         0.00000000
  45         0.00000000
  46         0.00000000
  47        -0.00000000
  48         0.00000000
  49         0.00000000
  50         0.00000000
  51         0.00000000
  52        -0.00000000
  53         0.00000000
  54         0.00000000
  55         0.00000000
  56        -0.00000000
  57         0.00000000
  58         0.00000000
  59        -0.00000000
  60         0.00000000
  61         1.01258727
  62         0.03627169
  63        -0.01009676
  64        -0.02222501
  65        -0.00889237
  66         0.00000000
  67         0.00001876
  68         0.00000000
  69         0.00000000
  70         0.00000033
  71         0.00000000
  72         0.00000000
  73        -0.00000043
  74         0.00000000
  75         0.00000000
  76         0.00000069
  77         0.00000000
  78         0.00000000
  79         0.00000000
  80         0.00000000
  81        -0.00000000
  82         0.00000000
  83        -0.00000000
  84         0.00000000
  85         0.00000000
  86         0.00000000
  87         0.00000000
  88        -0.00000000
  89         0.00000000
  90         0.00000000
  91         0.00000000
  92         0.00000000
  93         0.00000000
  94         0.00000000
  95        -0.00000000
  96         0.00000000
  97         0.00000000
  98         0.00000000
  99        -0.00000000
 100         0.00000000
 101         0.00000000
 102        -0.00000000
 103         0.00000000
 104         0.00000000
 105         0.00000000
 106         0.00000000
 107         0.00000000
 108         0.00000000
 109         0.00000000
 110        -0.00000000
 111         0.00000000
 112         0.00000000
 113         0.00000000
 114        -0.00000000
 115         0.00000000
Sym=     2a1 
Ene=    -1.5684
Spin= Alpha
Occup=    2.00000
   1         0.26348025
   2        -0.00248966
   3        -0.03747991
   4        -0.02680974
   5        -0.00000000
   6        -0.00000000
   7         0.00000000
   8         0.00000000
   9         0.00000000
  10         0.00000000
  11         0.00000000
  12         0.00000000
  13         0.00000000
  14         0.00000000
  15         0.00000000
  16         0.00000000
  17         0.00000000
  18        -0.00000000
  19         0.00000000
  20         0.00000000
  21         0.00000000
  22        -0.00000000
  23        -0.00000000
  24         0.00000000
  25        -0.00000000
  26        -0.00000000
  27         0.00000000
  28         0.00000000
  29        -0.00000000
  30         0.00000000
  31         0.26348025
  32        -0.00248966
  33        -0.03747991
  34        -0.02680974
  35         0.00000000
  36        -0.00000000
  37         0.00000000
  38        -0.00000000
  39         0.00000000
  40         0.00000000
  41        -0.00000000
  42         0.00000000
  43         0.00000000
  44         0.00000000
  45         0.00000000
  46         0.00000000
  47         0.00000000
  48         0.00000000
  49         0.00000000
  50         0.00000000
  51         0.00000000
  52        -0.00000000
  53         0.00000000
  54         0.00000000
  55         0.00000000
  56        -0.00000000
  57         0.00000000
  58         0.00000000
  59         0.00000000
  60         0.00000000
  61        -0.02503221
  62         0.76409666
  63         0.00607772
  64        -0.01723101
  65         0.01344036
  66         0.00000000
  67         0.05736893
  68         0.00000000
  69         0.00000000
  70         0.00102190
  71         0.00000000
  72         0.00000000
  73        -0.00131431
  74         0.00000000
  75         0.00000000
  76         0.00210975
  77         0.00000000
  78         0.00000000
  79         0.00000000
  80         0.00000000
  81        -0.00000000
  82         0.00000000
  83        -0.00000000
  84         0.00000000
  85         0.00000000
  86         0.00000000
  87         0.00000000
  88        -0.00000000
  89         0.00000000
  90         0.00000000
  91         0.00000000
  92         0.00000000
  93         0.00000000
  94         0.00000000
  95        -0.00000000
  96         0.00000000
  97         0.00000000
  98         0.00000000
  99         0.00000000
 100         0.00000000
 101         0.00000000
 102        -0.00000000
 103         0.00000000
 104         0.00000000
 105         0.00000000
 106         0.00000000
 107         0.00000000
 108         0.00000000
 109         0.00000000
 110        -0.00000000
 111         0.00000000
 112         0.00000000
 113         0.00000000
 114         0.00000000
 115         0.00000000
Sym=     3a1 
Ene=    -0.6848
Spin= Alpha
Occup=    2.00000
   1         0.21155706
   2        -0.00199903
   3        -0.03009387
   4        -0.02152643
   5        -0.00000000
   6         0.00000000
   7         0.00000000
   8         0.00000000
   9         0.00000000
  10         0.00000000
  11         0.00000000
  12         0.00000000
  13         0.00000000
  14         0.00000000
  15         0.00000000
  16         0.00000000
  17        -0.00000000
  18        -0.00000000
  19         0.00000000
  20         0.00000000
  21         0.00000000
  22        -0.00000000
  23        -0.00000000
  24         0.00000000
  25        -0.00000000
  26        -0.00000000
  27         0.00000000
  28         0.00000000
  29         0.00000000
  30         0.00000000
  31         0.21155706
  32        -0.00199903
  33        -0.03009387
  34        -0.02152643
  35         0.00000000
  36         0.00000000
  37         0.00000000
  38        -0.00000000
  39         0.00000000
  40         0.00000000
  41        -0.00000000
  42         0.00000000
  43         0.00000000
  44         0.00000000
  45         0.00000000
  46         0.00000000
  47        -0.00000000
  48         0.00000000
  49         0.00000000
  50         0.00000000
  51         0.00000000
  52        -0.00000000
  53         0.00000000
  54         0.00000000
  55         0.00000000
  56        -0.00000000
  57         0.00000000
  58         0.00000000
  59        -0.00000000
  60         0.00000000
  61        -0.01965109
  62        -0.35105623
  63        -0.00247322
  64         0.00857442
  65        -0.00588218
  66         0.00000000
  67         0.87670353
  68         0.00000000
  69         0.00000000
  70         0.01561646
  71         0.00000000
  72         0.00000000
  73        -0.02008514
  74         0.00000000
  75         0.00000000
  76         0.03224086
  77         0.00000000
  78         0.00000000
  79         0.00000000
  80         0.00000000
  81        -0.00000000
  82         0.00000000
  83        -0.00000000
  84         0.00000000
  85         0.00000000
  86         0.00000000
  87         0.00000000
  88        -0.00000000
  89         0.00000000
  90         0.00000000
  91         0.00000000
  92         0.00000000
  93         0.00000000
  94         0.00000000
  95        -0.00000000
  96         0.00000000
  97         0.00000000
  98         0.00000000
  99         0.00000000
 100         0.00000000
 101         0.00000000
 102        -0.00000000
 103         0.00000000
 104         0.00000000
 105         0.00000000
 106         0.00000000
 107         0.00000000
 108         0.00000000
 109         0.00000000
 110        -0.00000000
 111         0.00000000
 112         0.00000000
 113         0.00000000
 114        -0.00000000
 115         0.00000000
Sym=     4a1 
Ene=    -0.2549
Spin= Alpha
Occup=    0.00000
   1        -1.05297168
   2         0.00994967
   3         0.14978460
   4         0.10714236
   5         0.00000000
   6         0.00000000
   7         0.00000000
   8        -0.00000000
   9        -0.00000000
  10         0.00000000
  11        -0.00000000
  12        -0.00000000
  13         0.00000000
  14        -0.00000000
  15         0.00000000
  16         0.00000000
  17         0.00000000
  18         0.00000000
  19        -0.00000000
  20         0.00000000
  21         0.00000000
  22         0.00000000
  23         0.00000000
  24         0.00000000
  25         0.00000000
  26         0.00000000
  27         0.00000000
  28         0.00000000
  29        -0.00000000
  30        -0.00000000
  31        -1.05297168
  32         0.00994967
  33         0.14978460
  34         0.10714236
  35        -0.00000000
  36         0.00000000
  37         0.00000000
  38         0.00000000
  39        -0.00000000
  40         0.00000000
  41         0.00000000
  42        -0.00000000
  43         0.00000000
  44        -0.00000000
  45         0.00000000
  46         0.00000000
  47         0.00000000
  48        -0.00000000
  49        -0.00000000
  50         0.00000000
  51         0.00000000
  52         0.00000000
  53        -0.00000000
  54         0.00000000
  55        -0.00000000
  56         0.00000000
  57         0.00000000
  58         0.00000000
  59         0.00000000
  60        -0.00000000
  61         0.09541320
  62         0.99200521
  63         0.00658019
  64        -0.02507154
  65         0.01624676
  66         0.00000000
  67         0.56145398
  68         0.00000000
  69         0.00000000
  70         0.01000102
  71         0.00000000
  72         0.00000000
  73        -0.01286282
  74         0.00000000
  75         0.00000000
  76         0.02064753
  77         0.00000000
  78        -0.00000000
  79         0.00000000
  80         0.00000000
  81         0.00000000
  82         0.00000000
  83         0.00000000
  84         0.00000000
  85         0.00000000
  86        -0.00000000
  87         0.00000000
  88         0.00000000
  89         0.00000000
  90         0.00000000
  91        -0.00000000
  92         0.00000000
  93         0.00000000
  94         0.00000000
  95         0.00000000
  96         0.00000000
  97         0.00000000
  98         0.00000000
  99        -0.00000000
 100         0.00000000
 101         0.00000000
 102         0.00000000
 103         0.00000000
 104         0.00000000
 105         0.00000000
 106        -0.00000000
 107        -0.00000000
 108         0.00000000
 109         0.00000000
 110         0.00000000
 111         0.00000000
 112         0.00000000
 113         0.00000000
 114         0.00000000
 115         0.00000000
Sym=     5a1 
Ene=     3.4074
Spin= Alpha
Occup=    0.00000
   1         0.13241230
   2        -0.13061394
   3         0.34917724
   4        -1.42968617
   5         0.02506113
   6         0.01009950
   7         0.00000000
   8        -0.12176905
   9        -0.04864210
  10         0.00000000
  11         0.58248299
  12         0.18053564
  13         0.00000000
  14        -0.00323792
  15         0.00000000
  16         0.00000000
  17         0.00460464
  18         0.00662209
  19        -0.00923262
  20         0.00000000
  21         0.00000000
  22        -0.00840363
  23         0.01324675
  24         0.00000000
  25         0.00701924
  26         0.00483639
  27         0.00000000
  28         0.00000000
  29         0.00377106
  30        -0.01081833
  31         0.13241230
  32        -0.13061394
  33         0.34917724
  34        -1.42968617
  35        -0.02506113
  36         0.01009950
  37         0.00000000
  38         0.12176905
  39        -0.04864210
  40         0.00000000
  41        -0.58248299
  42         0.18053564
  43         0.00000000
  44        -0.00323792
  45         0.00000000
  46         0.00000000
  47         0.00460464
  48        -0.00662209
  49        -0.00923262
  50         0.00000000
  51         0.00000000
  52        -0.00840363
  53        -0.01324675
  54         0.00000000
  55        -0.00701924
  56         0.00483639
  57         0.00000000
  58         0.00000000
  59        -0.00377106
  60        -0.01081833
  61        -0.00174147
  62        -0.01393887
  63         0.14342979
  64        -0.68524105
  65         2.52023462
  66         0.00000000
  67         0.01533528
  68         0.00000000
  69         0.00000000
  70        -0.04829915
  71         0.00000000
  72         0.00000000
  73        -0.02326352
  74         0.00000000
  75         0.00000000
  76         0.46786028
  77         0.00000000
  78        -0.00463652
  79         0.00000000
  80         0.00000000
  81         0.00247937
  82         0.00000000
  83         0.03578545
  84         0.00000000
  85         0.00000000
  86        -0.02331958
  87         0.00000000
  88        -0.07893941
  89         0.00000000
  90         0.00000000
  91        -0.00080945
  92         0.00000000
  93         0.00000000
  94         0.00000000
  95         0.00288658
  96         0.00000000
  97         0.00000000
  98         0.00000000
  99        -0.00693562
 100         0.00000000
 101         0.00000000
 102        -0.00397209
 103         0.00000000
 104         0.00000000
 105         0.00000000
 106         0.00388518
 107         0.00004703
 108         0.00000000
 109         0.00000000
 110         0.00035073
 111         0.00000000
 112         0.00000000
 113         0.00000000
 114        -0.00153371
 115         0.00000000
Sym=     6a1 
Ene=     3.6308
Spin= Alpha
Occup=    0.00000
   1         0.22031629
   2        -0.11737684
   3        -6.82134554
   4        -0.39195348
   5        -0.02942261
   6        -0.02265845
   7         0.00000000
   8         0.36725243
   9         0.25496454
  10         0.00000000
  11         2.65458896
  12         0.77895117
  13         0.00000000
  14         0.00049500
  15         0.00000000
  16         0.00000000
  17         0.00287540
  18        -0.01003283
  19         0.21642479
  20         0.00000000
  21         0.00000000
  22        -0.23987896
  23        -0.22431346
  24         0.00000000
  25        -0.02472605
  26        -0.01148169
  27         0.00000000
  28         0.00000000
  29         0.01288196
  30         0.02688634
  31         0.22031629
  32        -0.11737684
  33        -6.82134554
  34        -0.39195348
  35         0.02942261
  36        -0.02265845
  37         0.00000000
  38        -0.36725243
  39         0.25496454
  40         0.00000000
  41        -2.65458896
  42         0.77895117
  43         0.00000000
  44         0.00049500
  45         0.00000000
  46         0.00000000
  47         0.00287540
  48         0.01003283
  49         0.21642479
  50         0.00000000
  51         0.00000000
  52        -0.23987896
  53         0.22431346
  54         0.00000000
  55         0.02472605
  56        -0.01148169
  57         0.00000000
  58         0.00000000
  59        -0.01288196
  60         0.02688634
  61        -0.03904545
  62        -0.14288193
  63        -0.31664566
  64         1.40585235
  65        11.66286797
  66         0.00000000
  67        -0.01429598
  68         0.00000000
  69         0.00000000
  70        -0.06964489
  71         0.00000000
  72         0.00000000
  73         1.13483218
  74         0.00000000
  75         0.00000000
  76         4.39021586
  77         0.00000000
  78         0.00232617
  79         0.00000000
  80         0.00000000
  81        -0.00676637
  82         0.00000000
  83        -0.03824739
  84         0.00000000
  85         0.00000000
  86         0.05946608
  87         0.00000000
  88        -0.86825075
  89         0.00000000
  90         0.00000000
  91         0.38674805
  92         0.00000000
  93         0.00000000
  94         0.00000000
  95         0.00306596
  96         0.00000000
  97         0.00000000
  98         0.00000000
  99         0.00314913
 100         0.00000000
 101         0.00000000
 102        -0.09370221
 103         0.00000000
 104         0.00000000
 105         0.00000000
 106         0.15352012
 107         0.01064823
 108         0.00000000
 109         0.00000000
 110        -0.00458374
 111         0.00000000
 112         0.00000000
 113         0.00000000
 114        -0.01402384
 115         0.00000000
Sym=     7a1 
Ene=     3.7353
Spin= Alpha
Occup=    0.00000
   1         0.20264886
   2        -0.31846432
   3        -1.23024575
   4        -0.47021686
   5        -0.01203675
   6         0.01562376
   7         0.00000000
   8         0.20602997
   9         0.02326604
  10         0.00000000
  11        -0.02163614
  12         1.52186861
  13         0.00000000
  14         0.00346253
  15         0.00000000
  16         0.00000000
  17        -0.01937112
  18         0.00619846
  19         0.02850097
  20         0.00000000
  21         0.00000000
  22         0.17595379
  23        -0.21445947
  24         0.00000000
  25         0.00850856
  26        -0.00424140
  27         0.00000000
  28         0.00000000
  29        -0.03189449
  30         0.00958075
  31         0.20264886
  32        -0.31846432
  33        -1.23024575
  34        -0.47021686
  35         0.01203675
  36         0.01562376
  37         0.00000000
  38        -0.20602997
  39         0.02326604
  40         0.00000000
  41         0.02163614
  42         1.52186861
  43         0.00000000
  44         0.00346253
  45         0.00000000
  46         0.00000000
  47        -0.01937112
  48        -0.00619846
  49         0.02850097
  50         0.00000000
  51         0.00000000
  52         0.17595379
  53         0.21445947
  54         0.00000000
  55        -0.00850856
  56        -0.00424140
  57         0.00000000
  58         0.00000000
  59         0.03189449
  60         0.00958075
  61        -0.04807511
  62        -0.19153035
  63         0.01229234
  64         0.13918924
  65         3.32486485
  66         0.00000000
  67        -0.00137838
  68         0.00000000
  69         0.00000000
  70        -0.01644810
  71         0.00000000
  72         0.00000000
  73         0.08100807
  74         0.00000000
  75         0.00000000
  76        -0.58764100
  77         0.00000000
  78         0.00202569
  79         0.00000000
  80         0.00000000
  81        -0.00071815
  82         0.00000000
  83        -0.01028908
  84         0.00000000
  85         0.00000000
  86        -0.00088295
  87         0.00000000
  88        -0.33469617
  89         0.00000000
  90         0.00000000
  91         0.97357216
  92         0.00000000
  93         0.00000000
  94         0.00000000
  95        -0.00259834
  96         0.00000000
  97         0.00000000
  98         0.00000000
  99        -0.01158762
 100         0.00000000
 101         0.00000000
 102         0.01124650
 103         0.00000000
 104         0.00000000
 105         0.00000000
 106         0.13819066
 107         0.00509695
 108         0.00000000
 109         0.00000000
 110        -0.01176108
 111         0.00000000
 112         0.00000000
 113         0.00000000
 114         0.00852156
 115         0.00000000
Sym=     8a1 
Ene=     4.0940
Spin= Alpha
Occup=    0.00000
   1         0.25389957
   2        -0.41886756
   3        -2.62615777
   4        -0.37088315
   5        -0.02054554
   6        -0.03473680
   7         0.00000000
   8         0.41013143
   9         0.36762570
  10         0.00000000
  11         0.34919756
  12        -0.15053125
  13         0.00000000
  14         0.00823682
  15         0.00000000
  16         0.00000000
  17        -0.02148221
  18        -0.02039606
  19         0.04655443
  20         0.00000000
  21         0.00000000
  22         0.00979466
  23        -0.05231101
  24         0.00000000
  25         0.01215131
  26         0.01357108
  27         0.00000000
  28         0.00000000
  29         0.01255818
  30        -0.00515753
  31         0.25389957
  32        -0.41886756
  33        -2.62615777
  34        -0.37088315
  35         0.02054554
  36        -0.03473680
  37         0.00000000
  38        -0.41013143
  39         0.36762570
  40         0.00000000
  41        -0.34919756
  42        -0.15053125
  43         0.00000000
  44         0.00823682
  45         0.00000000
  46         0.00000000
  47        -0.02148221
  48         0.02039606
  49         0.04655443
  50         0.00000000
  51         0.00000000
  52         0.00979466
  53         0.05231101
  54         0.00000000
  55        -0.01215131
  56         0.01357108
  57         0.00000000
  58         0.00000000
  59        -0.01255818
  60        -0.00515753
  61        -0.07394785
  62        -0.32166844
  63         0.41490984
  64        -1.66081152
  65         6.21456379
  66         0.00000000
  67         0.08854262
  68         0.00000000
  69         0.00000000
  70        -0.19540029
  71         0.00000000
  72         0.00000000
  73         1.06048831
  74         0.00000000
  75         0.00000000
  76         1.12595896
  77         0.00000000
  78         0.01554190
  79         0.00000000
  80         0.00000000
  81        -0.00277526
  82         0.00000000
  83        -0.06815811
  84         0.00000000
  85         0.00000000
  86         0.00241964
  87         0.00000000
  88        -0.45640670
  89         0.00000000
  90         0.00000000
  91         0.63258770
  92         0.00000000
  93         0.00000000
  94         0.00000000
  95         0.00692412
  96         0.00000000
  97         0.00000000
  98         0.00000000
  99        -0.02140977
 100         0.00000000
 101         0.00000000
 102        -0.09443363
 103         0.00000000
 104         0.00000000
 105         0.00000000
 106         0.26441038
 107         0.01295716
 108         0.00000000
 109         0.00000000
 110        -0.01010908
 111         0.00000000
 112         0.00000000
 113         0.00000000
 114        -0.01502806
 115         0.00000000
Sym=     9a1 
Ene=     4.2368
Spin= Alpha
Occup=    0.00000
   1         0.08167034
   2         0.19746507
   3        -4.78600128
   4        -0.44861744
   5        -0.00750167
   6        -0.01181491
   7         0.00000000
   8         0.03724631
   9         0.04803280
  10         0.00000000
  11         2.73924237
  12         1.38144625
  13         0.00000000
  14        -0.01315977
  15         0.00000000
  16         0.00000000
  17        -0.00430743
  18         0.01243149
  19         0.24348856
  20         0.00000000
  21         0.00000000
  22        -0.17292244
  23        -0.29764254
  24         0.00000000
  25        -0.02995096
  26        -0.01577460
  27         0.00000000
  28         0.00000000
  29         0.01600455
  30         0.04787825
  31         0.08167034
  32         0.19746507
  33        -4.78600128
  34        -0.44861744
  35         0.00750167
  36        -0.01181491
  37         0.00000000
  38        -0.03724631
  39         0.04803280
  40         0.00000000
  41        -2.73924237
  42         1.38144625
  43         0.00000000
  44        -0.01315977
  45         0.00000000
  46         0.00000000
  47        -0.00430743
  48        -0.01243149
  49         0.24348856
  50         0.00000000
  51         0.00000000
  52        -0.17292244
  53         0.29764254
  54         0.00000000
  55         0.02995096
  56        -0.01577460
  57         0.00000000
  58         0.00000000
  59        -0.01600455
  60         0.04787825
  61        -0.00120017
  62        -0.00094354
  63        -0.26180933
  64         1.92595350
  65         8.66794324
  66         0.00000000
  67         0.09083956
  68         0.00000000
  69         0.00000000
  70        -0.13319002
  71         0.00000000
  72         0.00000000
  73         1.93837235
  74         0.00000000
  75         0.00000000
  76         1.10090117
  77         0.00000000
  78         0.01962553
  79         0.00000000
  80         0.00000000
  81        -0.00314441
  82         0.00000000
  83        -0.14750835
  84         0.00000000
  85         0.00000000
  86         0.05737265
  87         0.00000000
  88         0.05311484
  89         0.00000000
  90         0.00000000
  91         0.16333305
  92         0.00000000
  93         0.00000000
  94         0.00000000
  95        -0.00844503
  96         0.00000000
  97         0.00000000
  98         0.00000000
  99         0.02377280
 100         0.00000000
 101         0.00000000
 102         0.00819483
 103         0.00000000
 104         0.00000000
 105         0.00000000
 106        -0.04885902
 107        -0.00149761
 108         0.00000000
 109         0.00000000
 110         0.00388083
 111         0.00000000
 112         0.00000000
 113         0.00000000
 114        -0.00468383
 115         0.00000000
Sym=    10a1 
Ene=     4.7590
Spin= Alpha
Occup=    0.00000
   1         0.02758071
   2         0.28981755
   3        -3.87600115
   4         0.33697008
   5        -0.09302063
   6        -0.05062820
   7         0.00000000
   8         0.75813037
   9         0.45820719
  10         0.00000000
  11         0.71332563
  12         1.17119602
  13         0.00000000
  14         0.00429435
  15         0.00000000
  16         0.00000000
  17        -0.02054505
  18        -0.02202653
  19         0.28731360
  20         0.00000000
  21         0.00000000
  22        -0.02321361
  23        -0.45049521
  24         0.00000000
  25        -0.03229066
  26        -0.02958325
  27         0.00000000
  28         0.00000000
  29        -0.03254277
  30         0.07172986
  31         0.02758071
  32         0.28981755
  33        -3.87600115
  34         0.33697008
  35         0.09302063
  36        -0.05062820
  37         0.00000000
  38        -0.75813037
  39         0.45820719
  40         0.00000000
  41        -0.71332563
  42         1.17119602
  43         0.00000000
  44         0.00429435
  45         0.00000000
  46         0.00000000
  47        -0.02054505
  48         0.02202653
  49         0.28731360
  50         0.00000000
  51         0.00000000
  52        -0.02321361
  53         0.45049521