   This run of MOLCAS is using the pymolcas driver

                             OPE
                             OPE          NMOL  CASOP  ENMOLC A   SO
                 OPE        NMOLC        AS  OP EN  MO LC     AS  OP
                OPENM       OL CA        SO  PE NM  OL CA     SOP EN
                OP EN      MO   LC       AS  OP ENMOL  CASO   PENMOL
                OP  EN     MO   LC       AS  OP EN     MO     LC ASO
               OP   E  NMOL  C  AS       OP  EN MO     LC     AS  OP
               OP  E   NMO   LC AS        OPEN  MO     LCASOP EN   M
               O  PEN   MO  LCA  SO
            OPE   NMO   L   CAS    OP
        OPENMOL  CASOP     ENMOL   CASOPE
     OPENMOLCA   SOPENMOLCASOPEN   MOLCASOPE
    OPENMOLCAS   OP           EN   MOL    CAS
    OPENMOLCAS       OP  ENM        O     LCA
    OPENMOLCAS    OPEN  MOLCASO     P  E  NMO
    OPENMOLCAS     OP               E  N  MOL
    OPENMOLCA   SO           PENM   O  L  CAS    OPEN    MO    LCAS
    OPENMOLCA   SOP           ENM   O  L  CAS   OP  EN  MOLC  AS   O
    OPENMOLCA   SOPE           NM      O  LCA   S      OP  EN MO
    OPENMOLC                AS         O  PEN   M      OL  CA  SOPE
    OPENMO        LCASOPE  NMOL        C  ASO   P      ENMOLC     AS
    OPE     NMO      LCA  SO     P     E   NM   OL  CA SO  PE N   MO
          OPENMOLCA            SOPE   NMO        LCAS  O    P  ENMO
     OPENMOLCASOPENMOLCASOPENMOLCASOPENMOLCA
        OPENMOLCASOPENMOLCASOPENMOLCASOPE
            OPENMOLCASOPENMOLCASOPENM
               OPENMOLCASOPENMOLCA        version: 24.02
                   OPENMOLCASO
                       OPE                tag: 428-g03afa2e9a

 OpenMolcas is free software; you can redistribute it and/or modify it
 under the terms of the GNU Lesser General Public License version 2.1.
 OpenMolcas is distributed in the hope that it will be useful, but it
 is provided "as is" and without any express or implied warranties.
 For more details see the full text of the license in the file
 LICENSE or in <http://www.gnu.org/licenses/>.

                 Copyright (C) The OpenMolcas Authors
           For the author list and the recommended citation,
                   consult the file CONTRIBUTORS.md

           *************************************************
           * pymolcas version py2.28                       *
           *   build c4a6d18ded8cb6cad61d2372a9abd97c      *
           *   (after the EMIL interpreter by V. Veryazov) *
           *************************************************

configuration info
------------------
Host name: DESKTOP-ET1S6F4 (Linux)
C Compiler ID: GNU
C flags: -std=gnu99 -fopenmp
Fortran Compiler ID: GNU
Fortran flags: -fno-aggressive-loop-optimizations -cpp -fdefault-integer-8 -fopenmp
Definitions: _WARNING_WORKAROUND_;_MOLCAS_;_I8_;_LINUX_
Parallel: OFF (GA=OFF)


   ----------------------------------------------------------------------
  |
  |           Project: h2o_PVQZ
  |    Submitted from: /home/kenya/molcas_test/0423
  |      Scratch area: /tmp/h2o_PVQZ
  |   Save outputs to: /home/kenya/molcas_test/0423
  |            Molcas: /home/kenya/OpenMolcas/builds/gnu_dev_omp
  |
  | Scratch area is empty
  |
  |    MOLCAS_DRIVER = /home/kenya/OpenMolcas/builds/gnu_dev_omp/pymolcas
  |    MOLCAS_NPROCS = 1
  |    MOLCAS_SOURCE = /home/kenya/OpenMolcas
  | MOLCAS_STRUCTURE = 0
  |
   ----------------------------------------------------------------------

++ ---------   Input file   ---------

&GATEWAY
  Coord = 3
  Angstrom
  H 0.8660 0.5 0.0
  H -0.8660 0.5 0.0
  O 0.0 0.0 0.0
  Basis = cc-pVQZ
  Group = Full
  NoCD

&SEWARD

&SCF

-- ----------------------------------

--- Start Module: gateway at Wed Apr 24 12:24:02 2024 ---

()()()()()()()()()()()()()()()()()()()()()()()()()()()()()()()()()()()()()()()()()()()()()()()()()()

                                              &GATEWAY

                                   only a single process is used
                       available to each process: 2.0 GB of memory, 1 thread
                                            pid: 171925
()()()()()()()()()()()()()()()()()()()()()()()()()()()()()()()()()()()()()()()()()()()()()()()()()()

      Found SYMMETRY generators: xz z

++    Symmetry information:
      ---------------------

                    --- Group Generators ---
                    Rotation around the y-axis  
                    Reflection in the xy-plane  

                    Character Table for C2v

                             E   C2(y) s(xy) s(yz)
                    a1       1     1     1     1  y
                    b1       1    -1     1    -1  x, xy, Rz
                    a2       1     1    -1    -1  xz, Ry, I
                    b2       1    -1    -1     1  z, yz, Rx
--


++    Basis set information:
      ----------------------


      Basis set label: H.CC-PVQZ.........

      Electronic valence basis set:
      ------------------
      Associated Effective Charge   1.000000 au
      Associated Actual Charge      1.000000 au
      Nuclear Model: Point charge

      Shell  nPrim  nBasis  Cartesian Spherical Contaminant
         s       6       4        X                  
         p       3       3        X                  
         d       2       2                 X         
         f       1       1                 X         


      Basis set label: O.CC-PVQZ.........

      Electronic valence basis set:
      ------------------
      Associated Effective Charge   8.000000 au
      Associated Actual Charge      8.000000 au
      Nuclear Model: Point charge

      Shell  nPrim  nBasis  Cartesian Spherical Contaminant
         s      12       5        X                  
         p       6       4        X                  
         d       3       3                 X         
         f       2       2                 X         
         g       1       1                 X         
--


++    Molecular structure info:
      -------------------------

                    ************************************************ 
                    **** Cartesian Coordinates / Bohr, Angstrom **** 
                    ************************************************ 

     Center  Label                x              y              z                     x              y              z
        1      H1               1.636503       0.944863       0.000000              0.866000       0.500000       0.000000
        2      H1              -1.636503       0.944863       0.000000             -0.866000       0.500000       0.000000
        3      O2               0.000000       0.000000       0.000000              0.000000       0.000000       0.000000

                    *************************************** 
                    *    InterNuclear Distances / Bohr    * 
                    *************************************** 

               1 H1            2 H1            3 O2    
    1 H1       0.000000
    2 H1       3.273006        0.000000
    3 O2       1.889685        1.889685        0.000000

                    ******************************************* 
                    *    InterNuclear Distances / Angstrom    * 
                    ******************************************* 

               1 H1            2 H1            3 O2    
    1 H1       0.000000
    2 H1       1.732000        0.000000
    3 O2       0.999978        0.999978        0.000000

                    ************************************** 
                    *    Valence Bond Angles / Degree    * 
                    ************************************** 
                          Atom centers                 Phi
                      1 H1       3 O2       2 H1       120.00
--


            Nuclear Potential Energy              8.77255122 au

--- Stop Module: gateway at Wed Apr 24 12:24:03 2024 /rc=_RC_ALL_IS_WELL_ ---
*** files: xmldump
    saved to directory /home/kenya/molcas_test/0423

--- Start Module: seward at Wed Apr 24 12:24:03 2024 ---

()()()()()()()()()()()()()()()()()()()()()()()()()()()()()()()()()()()()()()()()()()()()()()()()()()

                                              &SEWARD

                                   only a single process is used
                       available to each process: 2.0 GB of memory, 1 thread
                                            pid: 171935
()()()()()()()()()()()()()()()()()()()()()()()()()()()()()()()()()()()()()()()()()()()()()()()()()()

               SEWARD will generate:
                  Multipole Moment integrals up to order  2
                  Kinetic Energy integrals
                  Nuclear Attraction integrals (point charge)
                  One-Electron Hamiltonian integrals
                  Velocity integrals
                  Orbital angular momentum around ( 0.0000  0.1057  0.0000 )
                  Velocity quadrupole around ( 0.0000  0.1057  0.0000 )
                  Two-Electron Repulsion integrals

                   Integrals are discarded if absolute value <: 1.00E-14
                   Integral cutoff threshold is set to       <: 1.00E-16

                    Unitary symmetry adaptation


            Nuclear Potential Energy              8.77255122 au


      Basis set specifications :
      Symmetry species         a1   b1   a2   b2 
      Basis functions           42   33   17   23


      Input file to MOLDEN was generated!

--- Stop Module: seward at Wed Apr 24 12:24:04 2024 /rc=_RC_ALL_IS_WELL_ ---
*** files: h2o_PVQZ.GssOrb h2o_PVQZ.guessorb.molden xmldump
    saved to directory /home/kenya/molcas_test/0423
--- Module seward spent 1 second ---

*** symbolic link created: INPORB -> h2o_PVQZ.GssOrb
--- Start Module: scf at Wed Apr 24 12:24:04 2024 ---

()()()()()()()()()()()()()()()()()()()()()()()()()()()()()()()()()()()()()()()()()()()()()()()()()()

                                                &SCF

                                   only a single process is used
                       available to each process: 2.0 GB of memory, 1 thread
                                            pid: 171955
()()()()()()()()()()()()()()()()()()()()()()()()()()()()()()()()()()()()()()()()()()()()()()()()()()

++    Input section:
      --------------

      Header of the integral files:
      
       Integrals generated by Gateway/Seward, Wed Apr 24 12:24:03 2024


      Cartesian coordinates in Angstrom:
      -----------------------------------------------------
      No.  Label        X            Y            Z        
      -----------------------------------------------------
       1   H1         0.86600000   0.50000000   0.00000000
       2   O2         0.00000000   0.00000000   0.00000000
       3   H1        -0.86600000   0.50000000   0.00000000
      -----------------------------------------------------
      Nuclear repulsion energy =    8.77255122
--

++    Orbital specifications:
      -----------------------

      Symmetry species               1   2   3   4
                                    a1  b1  a2  b2
      Frozen orbitals                0   0   0   0
      Occupied orbitals              3   1   0   1
      Secondary orbitals            39  32  17  22
      Deleted orbitals               0   0   0   0
      Total number of orbitals      42  33  17  23
      Number of basis functions     42  33  17  23
--

      Molecular charge                           0.000

++    Optimization specifications:
      ----------------------------

      SCF Algorithm: Conventional
      Minimized density differences are used
      Number of density matrices in core                 5
      Maximum number of NDDO SCF iterations            400
      Maximum number of HF SCF iterations              400
      Threshold for SCF energy change             1.00E-09
      Threshold for density matrix                1.00E-04
      Threshold for Fock matrix                   1.50E-04
      Threshold for linear dependence             1.00E-09
      Threshold at which DIIS is turned on        1.50E-01
      Maximum depth in the DIIS procedure                5
      Maximum depth in the BFGS Hessian update          30
      Threshold at which QNR/C2DIIS is turned on  7.50E-02
      Threshold for Norm(delta) (QNR/C2DIIS)      1.00E-03
      All orbitals punched on: SCFORB
--

      Input vectors read from INPORB
      Orbital file label: *Guess orbitals


++ Convergence information
                                   SCF        iterations: Energy and convergence statistics

Iter     Tot. SCF        One-elec.       Two-elec.     Energy      Max Dij or  Max Fij      DNorm      TNorm      AccCon     Time
         Energy          Energy          Energy        Change      Delta Norm                                                in Sec.
   1   -75.911195813  -122.366364881    37.682617850   0.00E+00    1.84E-01*   1.33E-01*    4.44E+00   8.45E+01   None         0.
   2   -76.045511936  -122.096768695    37.278705540  -1.34E-01*   4.26E-02*   3.13E-02*    1.85E+00   8.46E+01   EDIIS        0.
   3   -76.051434979  -122.555530702    37.731544505  -5.92E-03*   2.66E-02*   1.45E-02*    2.28E-01   8.50E+01   c2DIIS       0.
   4   -76.052305234  -122.286404599    37.461548147  -8.70E-04*   1.03E-02*   5.95E-03*    1.01E-01   8.48E+01   QNRc2DIIS    0.
   5   -76.052467002  -122.438521909    37.613503689  -1.62E-04*   3.88E-03*   4.53E-03*    2.16E-02   8.49E+01   QNRc2DIIS    0.
   6   -76.052542561  -122.381596875    37.556503095  -7.56E-05*   1.36E-03*   7.59E-04*    3.22E-03   8.49E+01   QNRc2DIIS    0.
   7   -76.052545554  -122.378161265    37.553064492  -2.99E-06*   1.66E-04    4.71E-05     6.04E-04   8.49E+01   QNRc2DIIS    0.
   8   -76.052545599  -122.378269405    37.553172587  -4.55E-08*   1.40E-05    6.24E-06     1.92E-04   8.49E+01   QNRc2DIIS    0.
   9   -76.052545600  -122.378258961    37.553162143  -3.68E-10    2.39E-06    8.62E-07     4.65E-05   8.49E+01   QNRc2DIIS    0.

       Convergence after   9 Macro Iterations
--

 *****************************************************************************************************************************
 *                                                                                                                           *
 *                                             SCF/KS-DFT Program, Final results                                             *
 *                                                                                                                           *
 *                                                                                                                           *
 *                                                                                                                           *
 *                                                       Final Results                                                       *
 *                                                                                                                           *
 *****************************************************************************************************************************

::    Total SCF energy                                -76.0525455995
      One-electron energy                            -122.3782589611
      Two-electron energy                              37.5531621431
      Nuclear repulsion energy                          8.7725512185
      Kinetic energy (interpolated)                    75.8242789175
      Virial theorem                                    1.0030104695
      Total spin, S(S+1)                                0.0000000000
      Total spin, S                                     0.0000000000
      Max non-diagonal density matrix element           0.0000024175
      Max non-diagonal Fock matrix element              0.0000003468


      All orbitals with orbital energies smaller than  E(LUMO)+0.5 are printed

++    Molecular orbitals:
      -------------------

      Title: SCF orbitals

      Molecular orbitals for symmetry species 1: a1 

          Orbital            1         2         3         4         5         6    
          Energy          -20.5582   -1.3184   -0.5447    0.1141    0.4306    0.4902
          Occ. No.          2.0000    2.0000    2.0000    0.0000    0.0000    0.0000

        1 H1     1s        -0.0002    0.4953    0.4606   -0.0684   -0.6794    0.3698
        2 H1     *s         0.0012   -0.0198   -0.0082   -0.1344   -0.0298   -0.1975
        3 H1     *s         0.0009   -0.1826   -0.1152   -0.4671   -2.9929   -5.7579
        4 H1     *s        -0.0001   -0.1422   -0.1104   -1.3490    1.1118   -0.9176
        5 H1     *px       -0.0000   -0.0071   -0.0056    0.0030   -0.0474   -0.0084
        6 H1     *px       -0.0007   -0.0137   -0.0098   -0.0070    0.3172    0.2615
        7 H1     *px       -0.0002   -0.0073   -0.0011    0.2571    0.1202    2.5939
        8 H1     *py        0.0000   -0.0037    0.0017    0.0008   -0.0135   -0.0050
        9 H1     *py       -0.0005   -0.0073    0.0077    0.0124    0.1763    0.1685
       10 H1     *py       -0.0003   -0.0016    0.0288    0.1519    0.4560    1.0120
       11 H1     *d2-       0.0000    0.0021    0.0003    0.0014   -0.0112   -0.0035
       12 H1     *d2-       0.0002    0.0012   -0.0046   -0.0130   -0.1429   -0.2070
       13 H1     *d0       -0.0000   -0.0016   -0.0008   -0.0008    0.0053   -0.0009
       14 H1     *d0       -0.0001   -0.0005    0.0007    0.0048    0.0910    0.1873
       15 H1     *d2+       0.0000    0.0014    0.0025   -0.0004   -0.0098    0.0039
       16 H1     *d2+       0.0000    0.0007    0.0029    0.0056   -0.0182   -0.1989
       17 H1     *f3-       0.0000   -0.0006   -0.0000   -0.0048    0.0201    0.0203
       18 H1     *f1-      -0.0000    0.0002   -0.0004    0.0031   -0.0086   -0.0104
       19 H1     *f1+      -0.0000    0.0005    0.0002    0.0046   -0.0112   -0.0199
       20 H1     *f3+      -0.0000   -0.0001   -0.0014    0.0007   -0.0086    0.0078
       21 O2     1s         1.0005   -0.0037   -0.0028    0.0105   -0.0190   -0.0289
       22 O2     2s         0.0025    0.8914   -0.2583    0.3007    0.1581   -0.1142
       23 O2     *s         0.0005   -0.0087   -0.0066    0.0278   -0.1526   -0.1858
       24 O2     *s        -0.0032   -0.0162    0.0053   -0.2305    0.6945    0.8810
       25 O2     *s        -0.0012   -0.0186   -0.0780    1.8371    2.0864    7.7590
       26 O2     2py        0.0080    0.0798    0.8288    0.2091    0.1128   -0.5394
       27 O2     *py       -0.0032    0.0032   -0.0025   -0.0257    0.0114   -0.0157
       28 O2     *py       -0.0041    0.0067   -0.0003    0.0970    0.3165    0.6976
       29 O2     *py       -0.0020   -0.0125    0.0482    0.3709    0.8354    3.2348
       30 O2     *d0       -0.0001   -0.0006   -0.0021   -0.0003    0.0076   -0.0013
       31 O2     *d0        0.0003   -0.0058   -0.0072    0.0068   -0.0230    0.0021
       32 O2     *d0        0.0003   -0.0052   -0.0165   -0.0819   -0.2192   -0.5675
       33 O2     *d2+       0.0001    0.0005   -0.0007   -0.0003   -0.0078   -0.0027
       34 O2     *d2+      -0.0001    0.0042   -0.0021   -0.0082    0.0130    0.0339
       35 O2     *d2+      -0.0005    0.0033   -0.0073    0.0788    0.2770    0.2850
       36 O2     *f3-       0.0001    0.0011    0.0014   -0.0044    0.0001    0.0001
       37 O2     *f3-      -0.0003    0.0026    0.0033    0.0287    0.0755    0.0890
       38 O2     *f1-      -0.0000   -0.0005   -0.0009    0.0013   -0.0008    0.0028
       39 O2     *f1-       0.0001   -0.0013   -0.0030   -0.0093   -0.0227   -0.0516
       40 O2     *g0       -0.0000    0.0002    0.0003    0.0014    0.0041    0.0066
       41 O2     *g2+       0.0000   -0.0001   -0.0000   -0.0012   -0.0041   -0.0034
       42 O2     *g4+       0.0000   -0.0003   -0.0005   -0.0016   -0.0013   -0.0072

      Molecular orbitals for symmetry species 2: b1 

          Orbital            1         2         3         4    
          Energy           -0.7156    0.1651    0.4592    0.6041
          Occ. No.          2.0000    0.0000    0.0000    0.0000

        1 H1     1s         0.8524    0.0631   -0.4141    0.5941
        2 H1     *s        -0.0221   -0.0792   -0.1872   -0.3738
        3 H1     *s        -0.1691   -0.4943   -3.8314   -4.5073
        4 H1     *s        -0.2005   -2.6993    0.6971   -2.8622
        5 H1     *px       -0.0072    0.0025   -0.0422    0.0003
        6 H1     *px       -0.0156   -0.0299    0.4131    0.2815
        7 H1     *px       -0.0222    0.3452    0.6069    2.1959
        8 H1     *py       -0.0058    0.0055   -0.0341    0.0072
        9 H1     *py       -0.0146   -0.0493    0.2171    0.0902
       10 H1     *py       -0.0189    0.2505    0.0873    1.3092
       11 H1     *d2-       0.0032    0.0049   -0.0106    0.0016
       12 H1     *d2-       0.0051   -0.0141   -0.1304   -0.2070
       13 H1     *d0       -0.0017   -0.0036    0.0125    0.0008
       14 H1     *d0       -0.0036    0.0156    0.0751    0.1411
       15 H1     *d2+       0.0009    0.0015   -0.0069    0.0016
       16 H1     *d2+       0.0016   -0.0266   -0.1315   -0.1911
       17 H1     *f3-      -0.0012   -0.0015    0.0139    0.0142
       18 H1     *f1-       0.0005    0.0016   -0.0046   -0.0029
       19 H1     *f1+       0.0007    0.0009   -0.0105   -0.0110
       20 H1     *f3+       0.0004    0.0034    0.0085    0.0102
       21 O2     2px        0.7102    0.3052    0.2621   -0.5635
       22 O2     *px       -0.0005   -0.0066   -0.0531   -0.0705
       23 O2     *px       -0.0168    0.0697    0.9005    1.0891
       24 O2     *px       -0.0669    1.0829    2.2094    4.3098
       25 O2     *d2-       0.0041    0.0027   -0.0123   -0.0031
       26 O2     *d2-       0.0162   -0.0127    0.0327    0.0158
       27 O2     *d2-       0.0187    0.1088    0.5586    0.7857
       28 O2     *f1+      -0.0016    0.0007    0.0021    0.0031
       29 O2     *f1+      -0.0037   -0.0043   -0.0754   -0.0642
       30 O2     *f3+       0.0004    0.0007    0.0038    0.0023
       31 O2     *f3+       0.0016   -0.0093   -0.0302   -0.0426
       32 O2     *g4-       0.0006   -0.0006    0.0088    0.0066
       33 O2     *g2-      -0.0004   -0.0010   -0.0086   -0.0093

      Molecular orbitals for symmetry species 4: b2 

          Orbital            1         2    
          Energy           -0.4991    0.5871
          Occ. No.          2.0000    0.0000

        1 H1     *pz        0.0055    0.0149
        2 H1     *pz        0.0161   -0.0527
        3 H1     *pz        0.0377    0.0188
        4 H1     *d1-      -0.0013   -0.0042
        5 H1     *d1-      -0.0035    0.0221
        6 H1     *d1+      -0.0022   -0.0094
        7 H1     *d1+      -0.0063    0.0497
        8 H1     *f2-       0.0013    0.0075
        9 H1     *f0       -0.0012   -0.0056
       10 H1     *f2+       0.0007    0.0036
       11 O2     2pz        0.9206   -0.7298
       12 O2     *pz       -0.0023    0.1439
       13 O2     *pz       -0.0052   -0.4513
       14 O2     *pz        0.0694    1.4501
       15 O2     *d1-       0.0019    0.0023
       16 O2     *d1-       0.0064   -0.0169
       17 O2     *d1-       0.0145    0.0674
       18 O2     *f0       -0.0011    0.0045
       19 O2     *f0       -0.0040   -0.0167
       20 O2     *f2+       0.0006   -0.0024
       21 O2     *f2+       0.0022    0.0082
       22 O2     *g3-       0.0003   -0.0009
       23 O2     *g1-      -0.0002    0.0003
--


++    Molecular charges:
      ------------------

      Mulliken charges per centre and basis function type
      ---------------------------------------------------

                H1      O2    
      1s       1.1372  2.0010
      2s       0.0000  1.8324
      2px      0.0000  1.3376
      2pz      0.0000  1.8329
      2py      0.0000  1.6138
      *s      -0.5279 -0.0597
      *px      0.0163 -0.1344
      *pz      0.0338  0.0877
      *py      0.0302  0.0662
      *d2+     0.0014  0.0002
      *d1+     0.0035  0.0000
      *d0      0.0004  0.0053
      *d1-     0.0011  0.0016
      *d2-     0.0032  0.0130
      *f3+     0.0003  0.0000
      *f2+     0.0001  0.0001
      *f1+     0.0001  0.0006
      *f0      0.0002  0.0002
      *f1-     0.0000  0.0003
      *f2-     0.0002  0.0000
      *f3-     0.0002  0.0008
      *g4+     0.0000  0.0000
      *g3+     0.0000  0.0000
      *g2+     0.0000  0.0000
      *g1+     0.0000  0.0000
      *g0      0.0000  0.0000
      *g1-     0.0000  0.0000
      *g2-     0.0000  0.0000
      *g3-     0.0000  0.0000
      *g4-     0.0000  0.0000
      Total    0.7001  8.5997

      N-E      0.2999 -0.5997

      Total electronic charge=   10.000000

      Total            charge=   -0.000000
--


++    Molecular properties:
      ---------------------

      Charge (e):
                      =   -0.0000
      Dipole Moment (Debye):
      Origin of the operator (Ang)=    0.0000    0.0000    0.0000
                   X=  0.0000E+00               Y=  1.7598E+00               Z=  0.0000E+00           Total=  1.7598E+00
      Quadrupole Moment (Debye*Ang):
      Origin of the operator (Ang)=    0.0000    0.0560    0.0000
                  XX= -3.3631E+00              XY=  0.0000E+00              XZ=  0.0000E+00              YY= -6.4757E+00
                  YZ=  0.0000E+00              ZZ= -7.5359E+00
      In traceless form (Debye*Ang)
                  XX=  3.6428E+00              XY=  0.0000E+00              XZ=  0.0000E+00              YY= -1.0262E+00
                  YZ=  0.0000E+00              ZZ= -2.6165E+00
--


      Input file to MOLDEN was generated!

 ###############################################################################
 ###############################################################################
 ###                                                                         ###
 ###                                                                         ###
 ###    WARNING: RunFile label nBas                                          ###
 ###    was used       60 times                                              ###
 ###                                                                         ###
 ###                                                                         ###
 ###############################################################################
 ###############################################################################
--- Stop Module: scf at Wed Apr 24 12:24:05 2024 /rc=_RC_ALL_IS_WELL_ ---
*** files: h2o_PVQZ.scf.molden h2o_PVQZ.ScfOrb xmldump
    saved to directory /home/kenya/molcas_test/0423

.##################.
.# Happy landing! #.
.##################.

    Timing: Wall=2.32 User=1.91 System=0.38
