[Molden Format]
[N_Atoms]
                    3
[Atoms] (AU)
H1          1      1           1.63650282      0.94486306      0.00000000
H1          2      1          -1.63650282      0.94486306      0.00000000
O2          3      8           0.00000000      0.00000000      0.00000000
[5D]
[7F]
[9G]
[Charge] (Mulliken)
  0.59973391151246913     
  0.59973391151246913     
 -0.59973391151261701     
[GTO] (AU)
   1
   s   6
  8.264000000E+01  2.006000801E-03
  1.241000000E+01  1.534300612E-02
  2.824000000E+00  7.557903017E-02
  7.977000000E-01  2.568751025E-01
  2.581000000E-01  4.973681985E-01
  8.989000000E-02  2.961331182E-01
   s   1
  7.977000000E-01  1.000000000E+00
   s   1
  2.581000000E-01  1.000000000E+00
   s   1
  8.989000000E-02  1.000000000E+00
   p   1
  2.292000000E+00  1.000000000E+00
   p   1
  8.380000000E-01  1.000000000E+00
   p   1
  2.920000000E-01  1.000000000E+00
   d   1
  2.062000000E+00  1.000000000E+00
   d   1
  6.620000000E-01  1.000000000E+00
   f   1
  1.397000000E+00  1.000000000E+00
 
   2
   s   6
  8.264000000E+01  2.006000801E-03
  1.241000000E+01  1.534300612E-02
  2.824000000E+00  7.557903017E-02
  7.977000000E-01  2.568751025E-01
  2.581000000E-01  4.973681985E-01
  8.989000000E-02  2.961331182E-01
   s   1
  7.977000000E-01  1.000000000E+00
   s   1
  2.581000000E-01  1.000000000E+00
   s   1
  8.989000000E-02  1.000000000E+00
   p   1
  2.292000000E+00  1.000000000E+00
   p   1
  8.380000000E-01  1.000000000E+00
   p   1
  2.920000000E-01  1.000000000E+00
   d   1
  2.062000000E+00  1.000000000E+00
   d   1
  6.620000000E-01  1.000000000E+00
   f   1
  1.397000000E+00  1.000000000E+00
 
   3
   s  12
  6.142000000E+04  9.000006336E-05
  9.199000000E+03  6.980004914E-04
  2.091000000E+03  3.664002579E-03
  5.909000000E+02  1.521801071E-02
  1.923000000E+02  5.242303690E-02
  6.932000000E+01  1.459211027E-01
  2.697000000E+01  3.052582149E-01
  1.110000000E+01  3.985082805E-01
  4.682000000E+00  2.169801527E-01
  1.428000000E+00  1.759401239E-02
  5.547000000E-01 -2.502001761E-03
  2.067000000E-01  9.540006716E-04
   s  12
  6.142000000E+04 -2.000000177E-05
  9.199000000E+03 -1.590000141E-04
  2.091000000E+03 -8.290000736E-04
  5.909000000E+02 -3.508000311E-03
  1.923000000E+02 -1.215600108E-02
  6.932000000E+01 -3.626100322E-02
  2.697000000E+01 -8.299200736E-02
  1.110000000E+01 -1.520900135E-01
  4.682000000E+00 -1.153310102E-01
  1.428000000E+00  2.889790256E-01
  5.547000000E-01  5.861280520E-01
  2.067000000E-01  2.776240246E-01
   s   1
  1.428000000E+00  1.000000000E+00
   s   1
  5.547000000E-01  1.000000000E+00
   s   1
  2.067000000E-01  1.000000000E+00
   p   6
  6.342000000E+01  6.043996276E-03
  1.466000000E+01  4.179897424E-02
  4.459000000E+00  1.611429007E-01
  1.531000000E+00  3.567307802E-01
  5.302000000E-01  4.483087238E-01
  1.750000000E-01  2.449398491E-01
   p   1
  1.531000000E+00  1.000000000E+00
   p   1
  5.302000000E-01  1.000000000E+00
   p   1
  1.750000000E-01  1.000000000E+00
   d   1
  3.775000000E+00  1.000000000E+00
   d   1
  1.300000000E+00  1.000000000E+00
   d   1
  4.440000000E-01  1.000000000E+00
   f   1
  2.666000000E+00  1.000000000E+00
   f   1
  8.590000000E-01  1.000000000E+00
   g   1
  1.846000000E+00  1.000000000E+00
 
[MO]
Sym=     1a1 
Ene=   -20.5580
Spin= Alpha
Occup=    2.00000
   1        -0.00013442
   2         0.00084476
   3         0.00065920
   4        -0.00009614
   5        -0.00000108
   6         0.00001522
   7         0.00000000
   8        -0.00046179
   9        -0.00032529
  10         0.00000000
  11        -0.00014052
  12        -0.00021293
  13         0.00000000
  14        -0.00000648
  15         0.00000000
  16         0.00000000
  17         0.00002997
  18         0.00001010
  19        -0.00005678
  20         0.00000000
  21         0.00000000
  22         0.00000242
  23         0.00013825
  24         0.00000000
  25        -0.00001549
  26        -0.00002129
  27         0.00000000
  28         0.00000000
  29        -0.00002187
  30         0.00000064
  31        -0.00013442
  32         0.00084476
  33         0.00065920
  34        -0.00009614
  35         0.00000108
  36         0.00001522
  37         0.00000000
  38         0.00046179
  39        -0.00032529
  40         0.00000000
  41         0.00014052
  42        -0.00021293
  43         0.00000000
  44        -0.00000648
  45         0.00000000
  46         0.00000000
  47         0.00002997
  48        -0.00001010
  49        -0.00005678
  50         0.00000000
  51         0.00000000
  52         0.00000242
  53        -0.00013825
  54         0.00000000
  55         0.00001549
  56        -0.00002129
  57         0.00000000
  58         0.00000000
  59         0.00002187
  60         0.00000064
  61         1.00052082
  62         0.00249778
  63         0.00054647
  64        -0.00323955
  65        -0.00116343
  66         0.00000000
  67         0.00799013
  68         0.00000000
  69         0.00000000
  70        -0.00316447
  71         0.00000000
  72         0.00000000
  73        -0.00409173
  74         0.00000000
  75         0.00000000
  76        -0.00197222
  77         0.00000000
  78        -0.00008982
  79         0.00000000
  80         0.00000000
  81         0.00005579
  82         0.00000000
  83         0.00027565
  84         0.00000000
  85         0.00000000
  86        -0.00014507
  87         0.00000000
  88         0.00033405
  89         0.00000000
  90         0.00000000
  91        -0.00051405
  92         0.00000000
  93         0.00000000
  94         0.00000000
  95        -0.00002437
  96         0.00000000
  97         0.00000000
  98         0.00000000
  99         0.00008947
 100         0.00000000
 101         0.00000000
 102         0.00007555
 103         0.00000000
 104         0.00000000
 105         0.00000000
 106        -0.00028301
 107        -0.00000789
 108         0.00000000
 109         0.00000000
 110         0.00000757
 111         0.00000000
 112         0.00000000
 113         0.00000000
 114         0.00001660
 115         0.00000000
Sym=     2a1 
Ene=    -1.3184
Spin= Alpha
Occup=    2.00000
   1         0.35021746
   2        -0.01401010
   3        -0.12911617
   4        -0.10055891
   5        -0.00505034
   6        -0.00262674
   7         0.00000000
   8        -0.00969744
   9        -0.00519369
  10         0.00000000
  11        -0.00517290
  12        -0.00116669
  13         0.00000000
  14        -0.00113757
  15         0.00000000
  16         0.00000000
  17         0.00101216
  18         0.00151516
  19        -0.00034273
  20         0.00000000
  21         0.00000000
  22         0.00050635
  23         0.00088388
  24         0.00000000
  25         0.00034959
  26         0.00017156
  27         0.00000000
  28         0.00000000
  29        -0.00005940
  30        -0.00044928
  31         0.35021746
  32        -0.01401010
  33        -0.12911617
  34        -0.10055891
  35         0.00505034
  36        -0.00262674
  37         0.00000000
  38         0.00969744
  39        -0.00519369
  40         0.00000000
  41         0.00517290
  42        -0.00116669
  43         0.00000000
  44        -0.00113757
  45         0.00000000
  46         0.00000000
  47         0.00101216
  48        -0.00151516
  49        -0.00034273
  50         0.00000000
  51         0.00000000
  52         0.00050635
  53        -0.00088388
  54         0.00000000
  55        -0.00034959
  56         0.00017156
  57         0.00000000
  58         0.00000000
  59         0.00005940
  60        -0.00044928
  61        -0.00373052
  62         0.89143541
  63        -0.00874966
  64        -0.01616466
  65        -0.01856501
  66         0.00000000
  67         0.07980852
  68         0.00000000
  69         0.00000000
  70         0.00318985
  71         0.00000000
  72         0.00000000
  73         0.00671147
  74         0.00000000
  75         0.00000000
  76        -0.01246149
  77         0.00000000
  78        -0.00062577
  79         0.00000000
  80         0.00000000
  81         0.00046383
  82         0.00000000
  83        -0.00584857
  84         0.00000000
  85         0.00000000
  86         0.00419137
  87         0.00000000
  88        -0.00524608
  89         0.00000000
  90         0.00000000
  91         0.00334644
  92         0.00000000
  93         0.00000000
  94         0.00000000
  95        -0.00046043
  96         0.00000000
  97         0.00000000
  98         0.00000000
  99         0.00114402
 100         0.00000000
 101         0.00000000
 102        -0.00130773
 103         0.00000000
 104         0.00000000
 105         0.00000000
 106         0.00255133
 107         0.00022216
 108         0.00000000
 109         0.00000000
 110        -0.00011541
 111         0.00000000
 112         0.00000000
 113         0.00000000
 114        -0.00026423
 115         0.00000000
Sym=     3a1 
Ene=    -0.5447
Spin= Alpha
Occup=    2.00000
   1         0.32567875
   2        -0.00578324
   3        -0.08147816
   4        -0.07806791
   5        -0.00392487
   6         0.00120326
   7         0.00000000
   8        -0.00690246
   9         0.00541939
  10         0.00000000
  11        -0.00080619
  12         0.02037286
  13         0.00000000
  14        -0.00054722
  15         0.00000000
  16         0.00000000
  17         0.00177112
  18         0.00017983
  19         0.00051259
  20         0.00000000
  21         0.00000000
  22         0.00207814
  23        -0.00326554
  24         0.00000000
  25         0.00012237
  26        -0.00028287
  27         0.00000000
  28         0.00000000
  29        -0.00097011
  30        -0.00001535
  31         0.32567875
  32        -0.00578324
  33        -0.08147816
  34        -0.07806791
  35         0.00392487
  36         0.00120326
  37         0.00000000
  38         0.00690246
  39         0.00541939
  40         0.00000000
  41         0.00080619
  42         0.02037286
  43         0.00000000
  44        -0.00054722
  45         0.00000000
  46         0.00000000
  47         0.00177112
  48        -0.00017983
  49         0.00051259
  50         0.00000000
  51         0.00000000
  52         0.00207814
  53         0.00326554
  54         0.00000000
  55        -0.00012237
  56        -0.00028287
  57         0.00000000
  58         0.00000000
  59         0.00097011
  60        -0.00001535
  61        -0.00275198
  62        -0.25829971
  63        -0.00662911
  64         0.00526007
  65        -0.07797972
  66         0.00000000
  67         0.82878402
  68         0.00000000
  69         0.00000000
  70        -0.00251408
  71         0.00000000
  72         0.00000000
  73        -0.00034163
  74         0.00000000
  75         0.00000000
  76         0.04817863
  77         0.00000000
  78        -0.00207056
  79         0.00000000
  80         0.00000000
  81        -0.00072185
  82         0.00000000
  83        -0.00720263
  84         0.00000000
  85         0.00000000
  86        -0.00212766
  87         0.00000000
  88        -0.01652009
  89         0.00000000
  90         0.00000000
  91        -0.00732493
  92         0.00000000
  93         0.00000000
  94         0.00000000
  95        -0.00087103
  96         0.00000000
  97         0.00000000
  98         0.00000000
  99         0.00135654
 100         0.00000000
 101         0.00000000
 102        -0.00300173
 103         0.00000000
 104         0.00000000
 105         0.00000000
 106         0.00326725
 107         0.00027700
 108         0.00000000
 109         0.00000000
 110        -0.00000726
 111         0.00000000
 112         0.00000000
 113         0.00000000
 114        -0.00054074
 115         0.00000000
Sym=     4a1 
Ene=     0.1141
Spin= Alpha
Occup=    0.00000
   1        -0.04833553
   2        -0.09505690
   3        -0.33032461
   4        -0.95388424
   5         0.00212497
   6         0.00055718
   7         0.00000000
   8        -0.00495957
   9         0.00879612
  10         0.00000000
  11         0.18180000
  12         0.10739010
  13         0.00000000
  14        -0.00059821
  15         0.00000000
  16         0.00000000
  17        -0.00028793
  18         0.00096741
  19         0.00338112
  20         0.00000000
  21         0.00000000
  22         0.00394132
  23        -0.00920309
  24         0.00000000
  25         0.00326339
  26         0.00218055
  27         0.00000000
  28         0.00000000
  29         0.00052405
  30        -0.00339156
  31        -0.04833553
  32        -0.09505690
  33        -0.33032461
  34        -0.95388424
  35        -0.00212497
  36         0.00055718
  37         0.00000000
  38         0.00495957
  39         0.00879612
  40         0.00000000
  41        -0.18180000
  42         0.10739010
  43         0.00000000
  44        -0.00059821
  45         0.00000000
  46         0.00000000
  47        -0.00028793
  48        -0.00096741
  49         0.00338112
  50         0.00000000
  51         0.00000000
  52         0.00394132
  53         0.00920309
  54         0.00000000
  55        -0.00326339
  56         0.00218055
  57         0.00000000
  58         0.00000000
  59        -0.00052405
  60        -0.00339156
  61         0.01047384
  62         0.30065407
  63         0.02778308
  64        -0.23050950
  65         1.83714699
  66         0.00000000
  67         0.20914239
  68         0.00000000
  69         0.00000000
  70        -0.02572999
  71         0.00000000
  72         0.00000000
  73         0.09699851
  74         0.00000000
  75         0.00000000
  76         0.37093774
  77         0.00000000
  78        -0.00028287
  79         0.00000000
  80         0.00000000
  81        -0.00028506
  82         0.00000000
  83         0.00679967
  84         0.00000000
  85         0.00000000
  86        -0.00816279
  87         0.00000000
  88        -0.08188764
  89         0.00000000
  90         0.00000000
  91         0.07882562
  92         0.00000000
  93         0.00000000
  94         0.00000000
  95         0.00129077
  96         0.00000000
  97         0.00000000
  98         0.00000000
  99        -0.00439056
 100         0.00000000
 101         0.00000000
 102        -0.00925015
 103         0.00000000
 104         0.00000000
 105         0.00000000
 106         0.02865794
 107         0.00137772
 108         0.00000000
 109         0.00000000
 110        -0.00115969
 111         0.00000000
 112         0.00000000
 113         0.00000000
 114        -0.00159407
 115         0.00000000
Sym=     5a1 
Ene=     0.4306
Spin= Alpha
Occup=    0.00000
   1        -0.48039837
   2        -0.02107557
   3        -2.11626672
   4         0.78619423
   5        -0.03352369
   6        -0.00957986
   7         0.00000000
   8         0.22432125
   9         0.12468273
  10         0.00000000
  11         0.08500032
  12         0.32247318
  13         0.00000000
  14         0.00375716
  15         0.00000000
  16         0.00000000
  17        -0.00695628
  18        -0.00789473
  19         0.06438002
  20         0.00000000
  21         0.00000000
  22        -0.01289081
  23        -0.10104848
  24         0.00000000
  25        -0.00794248
  26        -0.00611045
  27         0.00000000
  28         0.00000000
  29        -0.00608843
  30         0.01423555
  31        -0.48039837
  32        -0.02107557
  33        -2.11626672
  34         0.78619423
  35         0.03352369
  36        -0.00957986
  37         0.00000000
  38        -0.22432125
  39         0.12468273
  40         0.00000000
  41        -0.08500032
  42         0.32247318
  43         0.00000000
  44         0.00375716
  45         0.00000000
  46         0.00000000
  47        -0.00695628
  48         0.00789473
  49         0.06438002
  50         0.00000000
  51         0.00000000
  52        -0.01289081
  53         0.10104848
  54         0.00000000
  55         0.00794248
  56        -0.00611045
  57         0.00000000
  58         0.00000000
  59         0.00608843
  60         0.01423555
  61        -0.01897546
  62         0.15814705
  63        -0.15260907
  64         0.69446483
  65         2.08636848
  66         0.00000000
  67         0.11279478
  68         0.00000000
  69         0.00000000
  70         0.01137746
  71         0.00000000
  72         0.00000000
  73         0.31650704
  74         0.00000000
  75         0.00000000
  76         0.83542731
  77         0.00000000
  78         0.00760299
  79         0.00000000
  80         0.00000000
  81        -0.00780611
  82         0.00000000
  83        -0.02302976
  84         0.00000000
  85         0.00000000
  86         0.01297449
  87         0.00000000
  88        -0.21921555
  89         0.00000000
  90         0.00000000
  91         0.27703107
  92         0.00000000
  93         0.00000000
  94         0.00000000
  95        -0.00078815
  96         0.00000000
  97         0.00000000
  98         0.00000000
  99         0.00010701
 100         0.00000000
 101         0.00000000
 102        -0.02268896
 103         0.00000000
 104         0.00000000
 105         0.00000000
 106         0.07548655
 107         0.00411079
 108         0.00000000
 109         0.00000000
 110        -0.00412335
 111         0.00000000
 112         0.00000000
 113         0.00000000
 114        -0.00127562
 115         0.00000000
Sym=     6a1 
Ene=     0.4902
Spin= Alpha
Occup=    0.00000
   1         0.26147275
   2        -0.13963054
   3        -4.07147271
   4        -0.64882146
   5        -0.00592963
   6        -0.00353931
   7         0.00000000
   8         0.18489547
   9         0.11912998
  10         0.00000000
  11         1.83414860
  12         0.71556167
  13         0.00000000
  14        -0.00062728
  15         0.00000000
  16         0.00000000
  17         0.00276304
  18        -0.00247387
  19         0.13247022
  20         0.00000000
  21         0.00000000
  22        -0.14067330
  23        -0.14640001
  24         0.00000000
  25        -0.01404225
  26        -0.00736951
  27         0.00000000
  28         0.00000000
  29         0.00549645
  30         0.01434558
  31         0.26147275
  32        -0.13963054
  33        -4.07147271
  34        -0.64882146
  35         0.00592963
  36        -0.00353931
  37         0.00000000
  38        -0.18489547
  39         0.11912998
  40         0.00000000
  41        -1.83414860
  42         0.71556167
  43         0.00000000
  44        -0.00062728
  45         0.00000000
  46         0.00000000
  47         0.00276304
  48         0.00247387
  49         0.13247022
  50         0.00000000
  51         0.00000000
  52        -0.14067330
  53         0.14640001
  54         0.00000000
  55         0.01404225
  56        -0.00736951
  57         0.00000000
  58         0.00000000
  59        -0.00549645
  60         0.01434558
  61        -0.02889067
  62        -0.11419222
  63        -0.18583024
  64         0.88103470
  65         7.75895187
  66         0.00000000
  67        -0.53942464
  68         0.00000000
  69         0.00000000
  70        -0.01574981
  71         0.00000000
  72         0.00000000
  73         0.69763418
  74         0.00000000
  75         0.00000000
  76         3.23483884
  77         0.00000000
  78        -0.00128900
  79         0.00000000
  80         0.00000000
  81        -0.00269927
  82         0.00000000
  83         0.00205950
  84         0.00000000
  85         0.00000000
  86         0.03393734
  87         0.00000000
  88        -0.56745056
  89         0.00000000
  90         0.00000000
  91         0.28495403
  92         0.00000000
  93         0.00000000
  94         0.00000000
  95         0.00277214
  96         0.00000000
  97         0.00000000
  98         0.00000000
  99         0.00006081
 100         0.00000000
 101         0.00000000
 102        -0.05157234
 103         0.00000000
 104         0.00000000
 105         0.00000000
 106         0.08903550
 107         0.00656348
 108         0.00000000
 109         0.00000000
 110        -0.00343504
 111         0.00000000
 112         0.00000000
 113         0.00000000
 114        -0.00721247
 115         0.00000000
Sym=     7a1 
Ene=     0.6508
Spin= Alpha
Occup=    0.00000
   1        -0.28261115
   2         0.29891443
   3        -0.92524890
   4         0.54954142
   5        -0.00726809
   6        -0.02748219
   7         0.00000000
   8        -0.02809355
   9         0.04166345
  10         0.00000000
  11         0.62367019
  12        -1.10180884
  13         0.00000000
  14        -0.00323240
  15         0.00000000
  16         0.00000000
  17         0.01508418
  18        -0.00814961
  19         0.05011570
  20         0.00000000
  21         0.00000000
  22        -0.20105721
  23         0.10074660
  24         0.00000000
  25        -0.01674995
  26        -0.00123418
  27         0.00000000
  28         0.00000000
  29         0.02843730
  30         0.00348190
  31        -0.28261115
  32         0.29891443
  33        -0.92524890
  34         0.54954142
  35         0.00726809
  36        -0.02748219
  37         0.00000000
  38         0.02809355
  39         0.04166345
  40         0.00000000
  41        -0.62367019
  42        -1.10180884
  43         0.00000000
  44        -0.00323240
  45         0.00000000
  46         0.00000000
  47         0.01508418
  48         0.00814961
  49         0.05011570
  50         0.00000000
  51         0.00000000
  52        -0.20105721
  53        -0.10074660
  54         0.00000000
  55         0.01674995
  56        -0.00123418
  57         0.00000000
  58         0.00000000
  59        -0.02843730
  60         0.00348190
  61         0.00011748
  62         0.23411992
  63        -0.04402206
  64         0.49009824
  65        -0.16702422
  66         0.00000000
  67         0.13457365
  68         0.00000000
  69         0.00000000
  70         0.00282548
  71         0.00000000
  72         0.00000000
  73         0.28125277
  74         0.00000000
  75         0.00000000
  76         1.54998514
  77         0.00000000
  78         0.00265916
  79         0.00000000
  80         0.00000000
  81         0.00116166
  82         0.00000000
  83        -0.00776626
  84         0.00000000
  85         0.00000000
  86         0.04197694
  87         0.00000000
  88         0.08708312
  89         0.00000000
  90         0.00000000
  91        -0.63408465
  92         0.00000000
  93         0.00000000
  94         0.00000000
  95         0.00198572
  96         0.00000000
  97         0.00000000
  98         0.00000000
  99         0.01314956
 100         0.00000000
 101         0.00000000
 102        -0.02818998
 103         0.00000000
 104         0.00000000
 105         0.00000000
 106        -0.07437575
 107        -0.00173702
 108         0.00000000
 109         0.00000000
 110         0.00832310
 111         0.00000000
 112         0.00000000
 113         0.00000000
 114        -0.00966464
 115         0.00000000
Sym=     8a1 
Ene=     0.8531
Spin= Alpha
Occup=    0.00000
   1         0.30998446
   2        -0.39736702
   3        -4.15012117
   4        -0.66357333
   5        -0.01057875
   6        -0.02657468
   7         0.00000000
   8         0.34124031
   9         0.29170407
  10         0.00000000
  11         1.43050900
  12         0.28448593
  13         0.00000000
  14         0.00365887
  15         0.00000000
  16         0.00000000
  17        -0.01392005
  18        -0.01492955
  19         0.12252622
  20         0.00000000
  21         0.00000000
  22        -0.08133246
  23        -0.12042752
  24         0.00000000
  25         0.00036304
  26         0.00646121
  27         0.00000000
  28         0.00000000
  29         0.01559965
  30         0.00475699
  31         0.30998446
  32        -0.39736702
  33        -4.15012117
  34        -0.66357333
  35         0.01057875
  36        -0.02657468
  37         0.00000000
  38        -0.34124031
  39         0.29170407
  40         0.00000000
  41        -1.43050900
  42         0.28448593
  43         0.00000000
  44         0.00365887
  45         0.00000000
  46         0.00000000
  47        -0.01392005
  48         0.01492955
  49         0.12252622
  50         0.00000000
  51         0.00000000
  52        -0.08133246
  53         0.12042752
  54         0.00000000
  55        -0.00036304
  56         0.00646121
  57         0.00000000
  58         0.00000000
  59        -0.01559965
  60         0.00475699
  61         0.01302206
  62        -0.42637961
  63        -0.02160486
  64        -0.82724308
  65         9.45484833
  66         0.00000000
  67         0.27046647
  68         0.00000000
  69         0.00000000
  70        -0.19479337
  71         0.00000000
  72         0.00000000
  73         1.21040463
  74         0.00000000
  75         0.00000000
  76         2.06340423
  77         0.00000000
  78         0.01660115
  79         0.00000000
  80         0.00000000
  81        -0.00293000
  82         0.00000000
  83        -0.04377386
  84         0.00000000
  85         0.00000000
  86         0.02020839
  87         0.00000000
  88        -0.50941854
  89         0.00000000
  90         0.00000000
  91         0.52747760
  92         0.00000000
  93         0.00000000
  94         0.00000000
  95         0.00554411
  96         0.00000000
  97         0.00000000
  98         0.00000000
  99        -0.01399670
 100         0.00000000
 101         0.00000000
 102        -0.08625220
 103         0.00000000
 104         0.00000000
 105         0.00000000
 106         0.21644958
 107         0.01166194
 108         0.00000000
 109         0.00000000
 110        -0.00749144
 111         0.00000000
 112         0.00000000
 113         0.00000000
 114        -0.01623605
 115         0.00000000
Sym=     9a1 
Ene=     1.0704
Spin= Alpha
Occup=    0.00000
   1        -0.24115017
   2         0.17659533
   3        -4.11502341
   4        -0.41118926
   5        -0.00091548
   6         0.00059854
   7         0.00000000
   8        -0.02116648
   9        -0.01320391
  10         0.00000000
  11         2.58327541
  12         1.40995499
  13         0.00000000
  14        -0.01250269
  15         0.00000000
  16         0.00000000
  17         0.00342222
  18         0.01411806
  19         0.20428089
  20         0.00000000
  21         0.00000000
  22        -0.14446544
  23        -0.24147584
  24         0.00000000
  25        -0.02796937
  26        -0.01707678
  27         0.00000000
  28         0.00000000
  29         0.00763660
  30         0.03942980
  31        -0.24115017
  32         0.17659533
  33        -4.11502341
  34        -0.41118926
  35         0.00091548
  36         0.00059854
  37         0.00000000
  38         0.02116648
  39        -0.01320391
  40         0.00000000
  41        -2.58327541
  42         1.40995499
  43         0.00000000
  44        -0.01250269
  45         0.00000000
  46         0.00000000
  47         0.00342222
  48        -0.01411806
  49         0.20428089
  50         0.00000000
  51         0.00000000
  52        -0.14446544
  53         0.24147584
  54         0.00000000
  55         0.02796937
  56        -0.01707678
  57         0.00000000
  58         0.00000000
  59        -0.00763660
  60         0.03942980
  61        -0.02332669
  62         0.13673671
  63        -0.24917398
  64         2.02514562
  65         7.68915186
  66         0.00000000
  67         0.48671429
  68         0.00000000
  69         0.00000000
  70        -0.08776503
  71         0.00000000
  72         0.00000000
  73         1.26346528
  74         0.00000000
  75         0.00000000
  76         1.07930305
  77         0.00000000
  78         0.01518961
  79         0.00000000
  80         0.00000000
  81        -0.00498332
  82         0.00000000
  83        -0.06543804
  84         0.00000000
  85         0.00000000
  86         0.02845175
  87         0.00000000
  88        -0.01129178
  89         0.00000000
  90         0.00000000
  91         0.10116390
  92         0.00000000
  93         0.00000000
  94         0.00000000
  95        -0.00816406
  96         0.00000000
  97         0.00000000
  98         0.00000000
  99         0.02228379
 100         0.00000000
 101         0.00000000
 102         0.01715551
 103         0.00000000
 104         0.00000000
 105         0.00000000
 106        -0.06169286
 107        -0.00215360
 108         0.00000000
 109         0.00000000
 110         0.00362499
 111         0.00000000
 112         0.00000000
 113         0.00000000
 114        -0.00160071
 115         0.00000000
Sym=    10a1 
Ene=     1.3581
Spin= Alpha
Occup=    0.00000
   1         0.95714637
   2         0.15266522
   3        -6.70312358
   4         0.02207274
   5        -0.08816114
   6        -0.04938535
   7         0.00000000
   8         0.79406797
   9         0.42652071
  10         0.00000000
  11         1.66689079
  12         1.39333603
  13         0.00000000
  14         0.00582503
  15         0.00000000
  16         0.00000000
  17        -0.02220215
  18        -0.01891441
  19         0.30574047
  20         0.00000000
  21         0.00000000
  22        -0.11781942
  23        -0.44083235
  24         0.00000000
  25        -0.03545379
  26        -0.02484090
  27         0.00000000
  28         0.00000000
  29        -0.01480196
  30         0.06523602
  31         0.95714637
  32         0.15266522
  33        -6.70312358
  34         0.02207274
  35         0.08816114
  36        -0.04938535
  37         0.00000000
  38        -0.79406797
  39         0.42652071
  40         0.00000000
  41        -1.66689079
  42         1.39333603
  43         0.00000000
  44         0.00582503
  45         0.00000000
  46         0.00000000
  47        -0.02220215
  48         0.01891441
  49         0.30574047
  50         0.00000000
  51         0.00000000
  52        -0.11781942
  53         0.44083235