[Molden Format]
[N_Atoms]
                    3
[Atoms] (AU)
H1          1      1           1.63650282      0.94486306      0.00000000
H1          2      1          -1.63650282      0.94486306      0.00000000
O2          3      8           0.00000000      0.00000000      0.00000000
[5D]
[Charge] (Mulliken)
  0.39950574572129049     
  0.39950574572129049     
 -0.39950574572131714     
[GTO] (AU)
   1
   s   4
  1.301000000E+01  1.968498999E-02
  1.962000000E+00  1.379769298E-01
  4.446000000E-01  4.781477569E-01
  1.220000000E-01  5.012397451E-01
   s   1
  1.220000000E-01  1.000000000E+00
   p   1
  7.270000000E-01  1.000000000E+00
 
   2
   s   4
  1.301000000E+01  1.968498999E-02
  1.962000000E+00  1.379769298E-01
  4.446000000E-01  4.781477569E-01
  1.220000000E-01  5.012397451E-01
   s   1
  1.220000000E-01  1.000000000E+00
   p   1
  7.270000000E-01  1.000000000E+00
 
   3
   s   9
  1.172000000E+04  7.100002503E-04
  1.759000000E+03  5.470001928E-03
  4.008000000E+02  2.783700981E-02
  1.137000000E+02  1.048000369E-01
  3.703000000E+01  2.830620998E-01
  1.327000000E+01  4.487191582E-01
  5.025000000E+00  2.709520955E-01
  1.013000000E+00  1.545800545E-02
  3.023000000E-01 -2.585000911E-03
   s   9
  1.172000000E+04 -1.600000154E-04
  1.759000000E+03 -1.263000121E-03
  4.008000000E+02 -6.267000602E-03
  1.137000000E+02 -2.571600247E-02
  3.703000000E+01 -7.092400682E-02
  1.327000000E+01 -1.654110159E-01
  5.025000000E+00 -1.169550112E-01
  1.013000000E+00  5.573680536E-01
  3.023000000E-01  5.727590551E-01
   s   1
  3.023000000E-01  1.000000000E+00
   p   4
  1.770000000E+01  4.301799242E-02
  3.854000000E+00  2.289129597E-01
  1.046000000E+00  5.087279104E-01
  2.753000000E-01  4.605309189E-01
   p   1
  2.753000000E-01  1.000000000E+00
   d   1
  1.185000000E+00  1.000000000E+00
 
[MO]
Sym=     1a1 
Ene=   -20.5470
Spin= Alpha
Occup=    2.00000
   1        -0.00011741
   2         0.00052280
   3         0.00046454
   4         0.00033704
   5         0.00000000
   6        -0.00011741
   7         0.00052280
   8        -0.00046454
   9         0.00033704
  10         0.00000000
  11         1.00033800
  12         0.00198775
  13        -0.00148943
  14         0.00000000
  15         0.00217460
  16         0.00000000
  17         0.00000000
  18        -0.00157089
  19         0.00000000
  20        -0.00005180
  21         0.00000000
  22         0.00000000
  23         0.00010362
  24         0.00000000
Sym=     2a1 
Ene=    -1.3047
Spin= Alpha
Occup=    2.00000
   1         0.28745046
   2        -0.13215535
   3        -0.03549834
   4        -0.01377033
   5         0.00000000
   6         0.28745046
   7        -0.13215535
   8         0.03549834
   9        -0.01377033
  10         0.00000000
  11        -0.00851973
  12         0.87821798
  13        -0.08581289
  14         0.00000000
  15         0.08623060
  16         0.00000000
  17         0.00000000
  18        -0.04140136
  19         0.00000000
  20        -0.00343768
  21         0.00000000
  22         0.00000000
  23         0.00235232
  24         0.00000000
Sym=     3a1 
Ene=    -0.5282
Spin= Alpha
Occup=    2.00000
   1         0.30640312
   2        -0.10530369
   3        -0.02605356
   4         0.01186052
   5         0.00000000
   6         0.30640312
   7        -0.10530369
   8         0.02605356
   9         0.01186052
  10         0.00000000
  11         0.00118682
  12        -0.25158580
  13        -0.14614247
  14         0.00000000
  15         0.81687818
  16         0.00000000
  17         0.00000000
  18         0.03426539
  19         0.00000000
  20        -0.01228179
  21         0.00000000
  22         0.00000000
  23        -0.01063356
  24         0.00000000
Sym=     4a1 
Ene=     0.1781
Spin= Alpha
Occup=    0.00000
   1        -0.15760430
   2        -0.73589197
   3         0.01371500
   4         0.01352686
   5         0.00000000
   6        -0.15760430
   7        -0.73589197
   8        -0.01371500
   9         0.01352686
  10         0.00000000
  11        -0.05217187
  12         0.16417530
  13         0.89449584
  14         0.00000000
  15         0.27228536
  16         0.00000000
  17         0.00000000
  18         0.18591456
  19         0.00000000
  20        -0.00854529
  21         0.00000000
  22         0.00000000
  23         0.00040284
  24         0.00000000
Sym=     5a1 
Ene=     0.7472
Spin= Alpha
Occup=    0.00000
   1        -1.49863965
   2         1.32428197
   3        -0.21571926
   4         0.00172587
   5         0.00000000
   6        -1.49863965
   7         1.32428197
   8         0.21571926
   9         0.00172587
  10         0.00000000
  11         0.04645702
  12         0.41372739
  13        -0.39431417
  14         0.00000000
  15         0.32133153
  16         0.00000000
  17         0.00000000
  18        -0.02218381
  19         0.00000000
  20         0.07453398
  21         0.00000000
  22         0.00000000
  23        -0.07434012
  24         0.00000000
Sym=     6a1 
Ene=     1.1678
Spin= Alpha
Occup=    0.00000
   1        -0.56780524
   2         0.12525263
   3         0.14234069
   4         0.22701865
   5         0.00000000
   6        -0.56780524
   7         0.12525263
   8        -0.14234069
   9         0.22701865
  10         0.00000000
  11        -0.02538330
  12         0.04433202
  13         0.63913975
  14         0.00000000
  15        -1.21928074
  16         0.00000000
  17         0.00000000
  18         1.70512087
  19         0.00000000
  20        -0.01440738
  21         0.00000000
  22         0.00000000
  23         0.00233911
  24         0.00000000
Sym=     7a1 
Ene=     1.5588
Spin= Alpha
Occup=    0.00000
   1         0.16471391
   2        -0.37834404
   3        -0.12790671
   4         0.59251573
   5         0.00000000
   6         0.16471391
   7        -0.37834404
   8         0.12790671
   9         0.59251573
  10         0.00000000
  11        -0.35523497
  12        -1.66750801
  13         2.18933601
  14         0.00000000
  15         0.31632636
  16         0.00000000
  17         0.00000000
  18        -0.67303443
  19         0.00000000
  20        -0.04668101
  21         0.00000000
  22         0.00000000
  23        -0.10317992
  24         0.00000000
Sym=     8a1 
Ene=     1.9067
Spin= Alpha
Occup=    0.00000
   1        -1.08728649
   2         0.20081094
   3         0.37603064
   4        -0.27681856
   5         0.00000000
   6        -1.08728649
   7         0.20081094
   8        -0.37603064
   9        -0.27681856
  10         0.00000000
  11        -0.68160262
  12        -2.97399809
  13         4.28189920
  14         0.00000000
  15        -0.04553898
  16         0.00000000
  17         0.00000000
  18         0.91011896
  19         0.00000000
  20         0.14457051
  21         0.00000000
  22         0.00000000
  23         0.06855452
  24         0.00000000
Sym=     9a1 
Ene=     2.3717
Spin= Alpha
Occup=    0.00000
   1        -0.79995386
   2         0.20811048
   3         0.87193896
   4         0.33649791
   5         0.00000000
   6        -0.79995386
   7         0.20811048
   8        -0.87193896
   9         0.33649791
  10         0.00000000
  11         0.17320755
  12         1.03902362
  13         0.36187846
  14         0.00000000
  15         0.75769737
  16         0.00000000
  17         0.00000000
  18        -0.07391262
  19         0.00000000
  20         0.20042127
  21         0.00000000
  22         0.00000000
  23        -0.02544558
  24         0.00000000
Sym=    10a1 
Ene=     3.3121
Spin= Alpha
Occup=    0.00000
   1         0.56921925
   2        -0.21248117
   3        -0.38182480
   4         0.25005138
   5         0.00000000
   6         0.56921925
   7        -0.21248117
   8         0.38182480
   9         0.25005138
  10         0.00000000
  11         0.08281323
  12         0.27044062
  13        -0.84537507
  14         0.00000000
  15        -0.06318433
  16         0.00000000
  17         0.00000000
  18        -0.47143254
  19         0.00000000
  20         0.68761346
  21         0.00000000
  22         0.00000000
  23         0.76363133
  24         0.00000000
Sym=    11a1 
Ene=     3.9920
Spin= Alpha
Occup=    0.00000
   1        -1.72138772
   2         0.68468217
   3         0.63298353
   4         0.46100368
   5         0.00000000
   6        -1.72138772
   7         0.68468217
   8        -0.63298353
   9         0.46100368
  10         0.00000000
  11        -0.15841674
  12        -0.41450254
  13         2.20147279
  14         0.00000000
  15         0.42265247
  16         0.00000000
  17         0.00000000
  18         0.40755774
  19         0.00000000
  20        -0.88702639
  21         0.00000000
  22         0.00000000
  23         0.86378863
  24         0.00000000
Sym=     1b1 
Ene=    -0.7004
Spin= Alpha
Occup=    2.00000
   1         0.55761123
   2        -0.19043325
   3        -0.03082809
   4        -0.02784931
   5         0.00000000
   6        -0.55761123
   7         0.19043325
   8        -0.03082809
   9         0.02784931
  10         0.00000000
  11         0.00000000
  12         0.00000000
  13         0.00000000
  14         0.69485754
  15         0.00000000
  16         0.00000000
  17        -0.10946142
  18         0.00000000
  19         0.00000000
  20         0.00000000
  21         0.00000000
  22         0.00000000
  23         0.00000000
  24         0.02213365
Sym=     2b1 
Ene=     0.2490
Spin= Alpha
Occup=    0.00000
   1        -0.04116239
   2        -1.29384237
   3         0.02085778
   4         0.01321681
   5         0.00000000
   6         0.04116239
   7         1.29384237
   8         0.02085778
   9        -0.01321681
  10         0.00000000
  11         0.00000000
  12         0.00000000
  13         0.00000000
  14         0.41852063
  15         0.00000000
  16         0.00000000
  17         0.49634279
  18         0.00000000
  19         0.00000000
  20         0.00000000
  21         0.00000000
  22         0.00000000
  23         0.00000000
  24         0.01863312
Sym=     3b1 
Ene=     0.8188
Spin= Alpha
Occup=    0.00000
   1        -1.57515416
   2         1.49382053
   3        -0.08288004
   4        -0.17825583
   5         0.00000000
   6         1.57515416
   7        -1.49382053
   8        -0.08288004
   9         0.17825583
  10         0.00000000
  11         0.00000000
  12         0.00000000
  13         0.00000000
  14         0.49426472
  15         0.00000000
  16         0.00000000
  17         0.10755451
  18         0.00000000
  19         0.00000000
  20         0.00000000
  21         0.00000000
  22         0.00000000
  23         0.00000000
  24        -0.10791220
Sym=     4b1 
Ene=     1.2400
Spin= Alpha
Occup=    0.00000
   1        -0.72913357
   2        -0.33234829
   3         0.38977823
   4         0.03701935
   5         0.00000000
   6         0.72913357
   7         0.33234829
   8         0.38977823
   9        -0.03701935
  10         0.00000000
  11         0.00000000
  12         0.00000000
  13         0.00000000
  14        -0.98609760
  15         0.00000000
  16         0.00000000
  17         2.20020726
  18         0.00000000
  19         0.00000000
  20         0.00000000
  21         0.00000000
  22         0.00000000
  23         0.00000000
  24         0.01424410
Sym=     5b1 
Ene=     1.8212
Spin= Alpha
Occup=    0.00000
   1        -0.93028034
   2         0.31047377
   3        -0.36741227
   4         0.65429017
   5         0.00000000
   6         0.93028034
   7        -0.31047377
   8        -0.36741227
   9        -0.65429017
  10         0.00000000
  11         0.00000000
  12         0.00000000
  13         0.00000000
  14        -0.38081171
  15         0.00000000
  16         0.00000000
  17         1.41448982
  18         0.00000000
  19         0.00000000
  20         0.00000000
  21         0.00000000
  22         0.00000000
  23         0.00000000
  24        -0.01126138
Sym=     6b1 
Ene=     2.4138
Spin= Alpha
Occup=    0.00000
   1        -0.58905356
   2        -0.03866367
   3         0.68760104
   4         0.58603412
   5         0.00000000
   6         0.58905356
   7         0.03866367
   8         0.68760104
   9        -0.58603412
  10         0.00000000
  11         0.00000000
  12         0.00000000
  13         0.00000000
  14         1.20312596
  15         0.00000000
  16         0.00000000
  17        -0.16420978
  18         0.00000000
  19         0.00000000
  20         0.00000000
  21         0.00000000
  22         0.00000000
  23         0.00000000
  24        -0.13782811
Sym=     7b1 
Ene=     3.9963
Spin= Alpha
Occup=    0.00000
   1        -1.63851581
   2         0.55213824
   3         0.61836819
   4         0.31770561
   5         0.00000000
   6         1.63851581
   7        -0.55213824
   8         0.61836819
   9        -0.31770561
  10         0.00000000
  11         0.00000000
  12         0.00000000
  13         0.00000000
  14         0.55305681
  15         0.00000000
  16         0.00000000
  17         0.92426161
  18         0.00000000
  19         0.00000000
  20         0.00000000
  21         0.00000000
  22         0.00000000
  23         0.00000000
  24         1.26072252
Sym=     1a2 
Ene=     1.4282
Spin= Alpha
Occup=    0.00000
   1         0.00000000
   2         0.00000000
   3         0.00000000
   4         0.00000000
   5         0.67403172
   6         0.00000000
   7         0.00000000
   8         0.00000000
   9         0.00000000
  10        -0.67403172
  11         0.00000000
  12         0.00000000
  13         0.00000000
  14         0.00000000
  15         0.00000000
  16         0.00000000
  17         0.00000000
  18         0.00000000
  19         0.00000000
  20         0.00000000
  21         0.13499975
  22         0.00000000
  23         0.00000000
  24         0.00000000
Sym=     2a2 
Ene=     3.3535
Spin= Alpha
Occup=    0.00000
   1         0.00000000
   2         0.00000000
   3         0.00000000
   4         0.00000000
   5        -0.36324609
   6         0.00000000
   7         0.00000000
   8         0.00000000
   9         0.00000000
  10         0.36324609
  11         0.00000000
  12         0.00000000
  13         0.00000000
  14         0.00000000
  15         0.00000000
  16         0.00000000
  17         0.00000000
  18         0.00000000
  19         0.00000000
  20         0.00000000
  21         1.06321743
  22         0.00000000
  23         0.00000000
  24         0.00000000
Sym=     1b2 
Ene=    -0.4835
Spin= Alpha
Occup=    2.00000
   1         0.00000000
   2         0.00000000
   3         0.00000000
   4         0.00000000
   5         0.02876449
   6         0.00000000
   7         0.00000000
   8         0.00000000
   9         0.00000000
  10         0.02876449
  11         0.00000000
  12         0.00000000
  13         0.00000000
  14         0.00000000
  15         0.00000000
  16         0.91806513
  17         0.00000000
  18         0.00000000
  19         0.07796581
  20         0.00000000
  21         0.00000000
  22         0.01593293
  23         0.00000000
  24         0.00000000
Sym=     2b2 
Ene=     1.2041
Spin= Alpha
Occup=    0.00000
   1         0.00000000
   2         0.00000000
   3         0.00000000
   4         0.00000000
   5         0.04328690
   6         0.00000000
   7         0.00000000
   8         0.00000000
   9         0.00000000
  10         0.04328690
  11         0.00000000
  12         0.00000000
  13         0.00000000
  14         0.00000000
  15         0.00000000
  16        -1.40968116
  17         0.00000000
  18         0.00000000
  19         1.64455070
  20         0.00000000
  21         0.00000000
  22        -0.00120393
  23         0.00000000
  24         0.00000000
Sym=     3b2 
Ene=     1.7347
Spin= Alpha
Occup=    0.00000
   1         0.00000000
   2         0.00000000
   3         0.00000000
   4         0.00000000
   5        -0.77734678
   6         0.00000000
   7         0.00000000
   8         0.00000000
   9         0.00000000
  10        -0.77734678
  11         0.00000000
  12         0.00000000
  13         0.00000000
  14         0.00000000
  15         0.00000000
  16        -0.07695501
  17         0.00000000
  18         0.00000000
  19         0.69814818
  20         0.00000000
  21         0.00000000
  22        -0.15262905
  23         0.00000000
  24         0.00000000
Sym=     4b2 
Ene=     3.1726
Spin= Alpha
Occup=    0.00000
   1         0.00000000
   2         0.00000000
   3         0.00000000
   4         0.00000000
   5        -0.31942464
   6         0.00000000
   7         0.00000000
   8         0.00000000
   9         0.00000000
  10        -0.31942464
  11         0.00000000
  12         0.00000000
  13         0.00000000
  14         0.00000000
  15         0.00000000
  16        -0.03826253
  17         0.00000000
  18         0.00000000
  19         0.26344566
  20         0.00000000
  21         0.00000000
  22         1.01802671
  23         0.00000000
  24         0.00000000
