[Molden Format]
[N_Atoms]
                    3
[Atoms] (AU)
H1          1      1           1.63650282      0.94486306      0.00000000
H1          2      1          -1.63650282      0.94486306      0.00000000
O2          3      8           0.00000000      0.00000000      0.00000000
[5D]
[7F]
[Charge] (Mulliken)
  0.55318246025941198     
  0.55318246025941198     
 -0.55318246025948348     
[GTO] (AU)
   1
   s   5
  3.387000000E+01  6.067999217E-03
  5.095000000E+00  4.530799416E-02
  1.159000000E+00  2.028219738E-01
  3.258000000E-01  5.039029350E-01
  1.027000000E-01  3.834209505E-01
   s   1
  3.258000000E-01  1.000000000E+00
   s   1
  1.027000000E-01  1.000000000E+00
   p   1
  1.407000000E+00  1.000000000E+00
   p   1
  3.880000000E-01  1.000000000E+00
   d   1
  1.057000000E+00  1.000000000E+00
 
   2
   s   5
  3.387000000E+01  6.067999217E-03
  5.095000000E+00  4.530799416E-02
  1.159000000E+00  2.028219738E-01
  3.258000000E-01  5.039029350E-01
  1.027000000E-01  3.834209505E-01
   s   1
  3.258000000E-01  1.000000000E+00
   s   1
  1.027000000E-01  1.000000000E+00
   p   1
  1.407000000E+00  1.000000000E+00
   p   1
  3.880000000E-01  1.000000000E+00
   d   1
  1.057000000E+00  1.000000000E+00
 
   3
   s  10
  1.533000000E+04  5.079996682E-04
  2.299000000E+03  3.928997434E-03
  5.224000000E+02  2.024298678E-02
  1.473000000E+02  7.918094828E-02
  4.755000000E+01  2.306868493E-01
  1.676000000E+01  4.331177171E-01
  6.207000000E+00  3.502597712E-01
  1.752000000E+00  4.272797209E-02
  6.882000000E-01 -8.153994674E-03
  2.384000000E-01  2.380998445E-03
   s  10
  1.533000000E+04 -1.150000604E-04
  2.299000000E+03 -8.950004697E-04
  5.224000000E+02 -4.636002433E-03
  1.473000000E+02 -1.872400983E-02
  4.755000000E+01 -5.846303068E-02
  1.676000000E+01 -1.364630716E-01
  6.207000000E+00 -1.757400922E-01
  1.752000000E+00  1.609340845E-01
  6.882000000E-01  6.034183167E-01
  2.384000000E-01  3.787651988E-01
   s   1
  1.752000000E+00  1.000000000E+00
   s   1
  2.384000000E-01  1.000000000E+00
   p   5
  3.446000000E+01  1.592799074E-02
  7.749000000E+00  9.973994203E-02
  2.280000000E+00  3.104918195E-01
  7.156000000E-01  4.910257146E-01
  2.140000000E-01  3.363368045E-01
   p   1
  7.156000000E-01  1.000000000E+00
   p   1
  2.140000000E-01  1.000000000E+00
   d   1
  2.314000000E+00  1.000000000E+00
   d   1
  6.450000000E-01  1.000000000E+00
   f   1
  1.428000000E+00  1.000000000E+00
 
[MO]
Sym=     1a1 
Ene=   -20.5530
Spin= Alpha
Occup=    2.00000
   1         0.00179665
   2         0.00051082
   3        -0.00094336
   4        -0.00031279
   5        -0.00017706
   6         0.00000000
   7        -0.00069447
   8        -0.00036211
   9         0.00000000
  10        -0.00003247
  11         0.00000000
  12         0.00000000
  13         0.00004035
  14         0.00000572
  15         0.00179665
  16         0.00051082
  17        -0.00094336
  18         0.00031279
  19        -0.00017706
  20         0.00000000
  21         0.00069447
  22        -0.00036211
  23         0.00000000
  24        -0.00003247
  25         0.00000000
  26         0.00000000
  27         0.00004035
  28        -0.00000572
  29         0.99920569
  30        -0.00145316
  31         0.00103014
  32        -0.00115050
  33         0.00000000
  34         0.00454292
  35         0.00000000
  36         0.00000000
  37        -0.00372877
  38         0.00000000
  39         0.00000000
  40        -0.00174609
  41         0.00000000
  42        -0.00002484
  43         0.00000000
  44         0.00000000
  45         0.00003281
  46         0.00000000
  47         0.00060838
  48         0.00000000
  49         0.00000000
  50        -0.00045606
  51         0.00000000
  52         0.00000000
  53         0.00000000
  54         0.00007135
  55         0.00000000
  56         0.00000000
  57         0.00000000
  58        -0.00015540
Sym=     2a1 
Ene=    -1.3142
Spin= Alpha
Occup=    2.00000
   1         0.34098823
   2        -0.10284483
   3        -0.12339592
   4        -0.01039211
   5        -0.00543518
   6         0.00000000
   7        -0.01016540
   8        -0.00294213
   9         0.00000000
  10        -0.00077132
  11         0.00000000
  12         0.00000000
  13         0.00109027
  14         0.00142992
  15         0.34098823
  16        -0.10284483
  17        -0.12339592
  18         0.01039211
  19        -0.00543518
  20         0.00000000
  21         0.01016540
  22        -0.00294213
  23         0.00000000
  24        -0.00077132
  25         0.00000000
  26         0.00000000
  27         0.00109027
  28        -0.00142992
  29        -0.00761229
  30         0.87772449
  31        -0.00712475
  32        -0.03007994
  33         0.00000000
  34         0.08254338
  35         0.00000000
  36         0.00000000
  37         0.00890208
  38         0.00000000
  39         0.00000000
  40        -0.01765754
  41         0.00000000
  42        -0.00333110
  43         0.00000000
  44         0.00000000
  45         0.00236243
  46         0.00000000
  47        -0.00803408
  48         0.00000000
  49         0.00000000
  50         0.00603809
  51         0.00000000
  52         0.00000000
  53         0.00000000
  54        -0.00132046
  55         0.00000000
  56         0.00000000
  57         0.00000000
  58         0.00288702
Sym=     3a1 
Ene=    -0.5402
Spin= Alpha
Occup=    2.00000
   1         0.32432812
   2        -0.04342628
   3        -0.09243944
   4        -0.00821712
   5         0.00283907
   6         0.00000000
   7        -0.01556123
   8         0.01669780
   9         0.00000000
  10        -0.00095740
  11         0.00000000
  12         0.00000000
  13         0.00348820
  14        -0.00086931
  15         0.32432812
  16        -0.04342628
  17        -0.09243944
  18         0.00821712
  19         0.00283907
  20         0.00000000
  21         0.01556123
  22         0.01669780
  23         0.00000000
  24        -0.00095740
  25         0.00000000
  26         0.00000000
  27         0.00348820
  28         0.00086931
  29        -0.00078503
  30        -0.25439481
  31        -0.00502518
  32        -0.12734463
  33         0.00000000
  34         0.82859654
  35         0.00000000
  36         0.00000000
  37        -0.00982599
  38         0.00000000
  39         0.00000000
  40         0.03742563
  41         0.00000000
  42        -0.00491993
  43         0.00000000
  44         0.00000000
  45        -0.00146460
  46         0.00000000
  47        -0.01455491
  48         0.00000000
  49         0.00000000
  50        -0.00993711
  51         0.00000000
  52         0.00000000
  53         0.00000000
  54        -0.00268167
  55         0.00000000
  56         0.00000000
  57         0.00000000
  58         0.00299492
Sym=     4a1 
Ene=     0.1380
Spin= Alpha
Occup=    0.00000
   1        -0.16104093
   2        -0.20252395
   3        -0.84524417
   4        -0.00493770
   5         0.00179664
   6         0.00000000
   7         0.15545058
   8         0.07997526
   9         0.00000000
  10         0.01153579
  11         0.00000000
  12         0.00000000
  13        -0.00737745
  14        -0.01679814
  15        -0.16104093
  16        -0.20252395
  17        -0.84524417
  18         0.00493770
  19         0.00179664
  20         0.00000000
  21        -0.15545058
  22         0.07997526
  23         0.00000000
  24         0.01153579
  25         0.00000000
  26         0.00000000
  27        -0.00737745
  28         0.01679814
  29        -0.03492135
  30         0.18467087
  31         0.00964322
  32         1.43024150
  33         0.00000000
  34         0.20866238
  35         0.00000000
  36         0.00000000
  37         0.07302596
  38         0.00000000
  39         0.00000000
  40         0.34154530
  41         0.00000000
  42         0.00275992
  43         0.00000000
  44         0.00000000
  45        -0.00318274
  46         0.00000000
  47        -0.05078873
  48         0.00000000
  49         0.00000000
  50         0.03439026
  51         0.00000000
  52         0.00000000
  53         0.00000000
  54        -0.00437927
  55         0.00000000
  56         0.00000000
  57         0.00000000
  58         0.01036168
Sym=     5a1 
Ene=     0.5215
Spin= Alpha
Occup=    0.00000
   1        -0.44937116
   2        -0.84006903
   3         0.81551052
   4         0.02989566
   5         0.01004363
   6         0.00000000
   7        -0.26403267
   8         0.06733796
   9         0.00000000
  10         0.00557541
  11         0.00000000
  12         0.00000000
  13         0.00988993
  14        -0.01066162
  15        -0.44937116
  16        -0.84006903
  17         0.81551052
  18        -0.02989566
  19         0.01004363
  20         0.00000000
  21         0.26403267
  22         0.06733796
  23         0.00000000
  24         0.00557541
  25         0.00000000
  26         0.00000000
  27         0.00988993
  28         0.01066162
  29         0.01522122
  30         0.28323920
  31        -0.01709165
  32         0.05257666
  33         0.00000000
  34         0.22686152
  35         0.00000000
  36         0.00000000
  37        -0.01211664
  38         0.00000000
  39         0.00000000
  40         0.19431985
  41         0.00000000
  42         0.01170897
  43         0.00000000
  44         0.00000000
  45        -0.02018000
  46         0.00000000
  47         0.00032417
  48         0.00000000
  49         0.00000000
  50         0.03194482
  51         0.00000000
  52         0.00000000
  53         0.00000000
  54        -0.00283835
  55         0.00000000
  56         0.00000000
  57         0.00000000
  58         0.01227426
Sym=     6a1 
Ene=     0.6990
Spin= Alpha
Occup=    0.00000
   1         0.16413716
   2        -1.93721912
   3        -0.50959555
   4         0.01941999
   5         0.01416803
   6         0.00000000
   7         0.95649161
   8         0.52459288
   9         0.00000000
  10         0.05315210
  11         0.00000000
  12         0.00000000
  13        -0.04434151
  14        -0.06061168
  15         0.16413716
  16        -1.93721912
  17        -0.50959555
  18        -0.01941999
  19         0.01416803
  20         0.00000000
  21        -0.95649161
  22         0.52459288
  23         0.00000000
  24         0.05315210
  25         0.00000000
  26         0.00000000
  27        -0.04434151
  28         0.06061168
  29         0.01808863
  30         0.05044715
  31        -0.06962366
  32         3.93313229
  33         0.00000000
  34        -0.65244021
  35         0.00000000
  36         0.00000000
  37         0.04989791
  38         0.00000000
  39         0.00000000
  40         2.34467366
  41         0.00000000
  42         0.02493366
  43         0.00000000
  44         0.00000000
  45        -0.01059100
  46         0.00000000
  47        -0.27611299
  48         0.00000000
  49         0.00000000
  50         0.20158936
  51         0.00000000
  52         0.00000000
  53         0.00000000
  54        -0.01645375
  55         0.00000000
  56         0.00000000
  57         0.00000000
  58         0.03921637
Sym=     7a1 
Ene=     0.8943
Spin= Alpha
Occup=    0.00000
   1         0.01669532
   2        -0.76530550
   3         0.26898258
   4        -0.05209250
   5         0.04412007
   6         0.00000000
   7         0.45271575
   8        -0.80911491
   9         0.00000000
  10         0.00502779
  11         0.00000000
  12         0.00000000
  13        -0.03402595
  14         0.04571007
  15         0.01669532
  16        -0.76530550
  17         0.26898258
  18         0.05209250
  19         0.04412007
  20         0.00000000
  21        -0.45271575
  22        -0.80911491
  23         0.00000000
  24         0.00502779
  25         0.00000000
  26         0.00000000
  27        -0.03402595
  28        -0.04571007
  29         0.07162080
  30         0.47132584
  31        -0.01791589
  32        -0.02045284
  33         0.00000000
  34         0.03024846
  35         0.00000000
  36         0.00000000
  37        -0.08199045
  38         0.00000000
  39         0.00000000
  40         1.40937203
  41         0.00000000
  42         0.00693546
  43         0.00000000
  44         0.00000000
  45         0.02995800
  46         0.00000000
  47         0.04870743
  48         0.00000000
  49         0.00000000
  50        -0.11369047
  51         0.00000000
  52         0.00000000
  53         0.00000000
  54        -0.00485529
  55         0.00000000
  56         0.00000000
  57         0.00000000
  58        -0.00783203
Sym=     8a1 
Ene=     1.1548
Spin= Alpha
Occup=    0.00000
   1         0.17673191
   2        -2.98957000
   3        -0.69252706
   4         0.05980821
   5         0.08044504
   6         0.00000000
   7         1.48679172
   8         0.41552526
   9         0.00000000
  10         0.12096747
  11         0.00000000
  12         0.00000000
  13        -0.06757244
  14        -0.14433180
  15         0.17673191
  16        -2.98957000
  17        -0.69252706
  18        -0.05980821
  19         0.08044504
  20         0.00000000
  21        -1.48679172
  22         0.41552526
  23         0.00000000
  24         0.12096747
  25         0.00000000
  26         0.00000000
  27        -0.06757244
  28         0.14433180
  29        -0.30121582
  30        -1.52732820
  31        -0.03333008
  32         7.59476787
  33         0.00000000
  34         0.13798979
  35         0.00000000
  36         0.00000000
  37         0.81450346
  38         0.00000000
  39         0.00000000
  40         1.63618261
  41         0.00000000
  42         0.01735232
  43         0.00000000
  44         0.00000000
  45        -0.01201799
  46         0.00000000
  47        -0.24698022
  48         0.00000000
  49         0.00000000
  50         0.34572707
  51         0.00000000
  52         0.00000000
  53         0.00000000
  54        -0.03294955
  55         0.00000000
  56         0.00000000
  57         0.00000000
  58         0.08971300
Sym=     9a1 
Ene=     1.4754
Spin= Alpha
Occup=    0.00000
   1        -0.54785613
   2        -0.62751930
   3        -0.06937634
   4        -0.13650949
   5        -0.06385809
   6         0.00000000
   7         1.19606713
   8         0.62721186
   9         0.00000000
  10         0.00315924
  11         0.00000000
  12         0.00000000
  13         0.01183231
  14         0.03112804
  15        -0.54785613
  16        -0.62751930
  17        -0.06937634
  18         0.13650949
  19        -0.06385809
  20         0.00000000
  21        -1.19606713
  22         0.62721186
  23         0.00000000
  24         0.00315924
  25         0.00000000
  26         0.00000000
  27         0.01183231
  28        -0.03112804
  29         0.30877569
  30         1.50482552
  31        -0.03639629
  32         1.37100647
  33         0.00000000
  34         0.39351920
  35         0.00000000
  36         0.00000000
  37         0.36008749
  38         0.00000000
  39         0.00000000
  40         0.16405881
  41         0.00000000
  42         0.00695607
  43         0.00000000
  44         0.00000000
  45        -0.00970941
  46         0.00000000
  47         0.16020374
  48         0.00000000
  49         0.00000000
  50        -0.09994942
  51         0.00000000
  52         0.00000000
  53         0.00000000
  54         0.01700916
  55         0.00000000
  56         0.00000000
  57         0.00000000
  58        -0.04464432
Sym=    10a1 
Ene=     2.0583
Spin= Alpha
Occup=    0.00000
   1         1.29796874
   2        -1.11240525
   3        -0.32987680
   4         0.07165976
   5        -0.03588016
   6         0.00000000
   7        -0.18284495
   8         0.61981505
   9         0.00000000
  10         0.06437727
  11         0.00000000
  12         0.00000000
  13         0.01513792
  14        -0.00310120
  15         1.29796874
  16        -1.11240525
  17        -0.32987680
  18        -0.07165976
  19        -0.03588016
  20         0.00000000
  21         0.18284495
  22         0.61981505
  23         0.00000000
  24         0.06437727
  25         0.00000000
  26         0.00000000
  27         0.01513792
  28         0.00310120
  29         0.16918298
  30         0.65599974
  31        -0.05563957
  32        -0.34044193
  33         0.00000000
  34        -0.04090309
  35         0.00000000
  36         0.00000000
  37         0.13555431
  38         0.00000000
  39         0.00000000
  40        -0.56307042
  41         0.00000000
  42        -0.00893032
  43         0.00000000
  44         0.00000000
  45        -0.00752907
  46         0.00000000
  47         0.37779383
  48         0.00000000
  49         0.00000000
  50         1.07269059
  51         0.00000000
  52         0.00000000
  53         0.00000000
  54        -0.00991905
  55         0.00000000
  56         0.00000000
  57         0.00000000
  58         0.05429617
Sym=    11a1 
Ene=     2.2637
Spin= Alpha
Occup=    0.00000
   1         1.33215013
   2        -5.19467849
   3        -0.68773675
   4         0.08664568
   5         0.01185581
   6         0.00000000
   7         1.94224566
   8         0.86570651
   9         0.00000000
  10         0.06147271
  11         0.00000000
  12         0.00000000
  13        -0.06267680
  14        -0.16206449
  15         1.33215013
  16        -5.19467849
  17        -0.68773675
  18        -0.08664568
  19         0.01185581
  20         0.00000000
  21        -1.94224566
  22         0.86570651
  23         0.00000000
  24         0.06147271
  25         0.00000000
  26         0.00000000
  27        -0.06267680
  28         0.16206449
  29         0.17358306
  30         0.70246278
  31        -0.15715657
  32         7.05998207
  33         0.00000000
  34         0.37081966
  35         0.00000000
  36         0.00000000
  37         0.68560735
  38         0.00000000
  39         0.00000000
  40         2.19371692
  41         0.00000000
  42         0.00953470
  43         0.00000000
  44         0.00000000
  45        -0.01152876
  46         0.00000000
  47        -1.46000012
  48         0.00000000
  49         0.00000000
  50         0.74860946
  51         0.00000000
  52         0.00000000
  53         0.00000000
  54        -0.04491887
  55         0.00000000
  56         0.00000000
  57         0.00000000
  58         0.11089393
Sym=    12a1 
Ene=     2.7456
Spin= Alpha
Occup=    0.00000
   1         3.98617266
   2        -3.64435732
   3        -1.22456579
   4         0.03930209
   5         0.13469843
   6         0.00000000
   7         0.44948344
   8        -0.18585204
   9         0.00000000
  10         0.10593018
  11         0.00000000
  12         0.00000000
  13         0.07691649
  14         0.02733290
  15         3.98617266
  16        -3.64435732
  17        -1.22456579
  18        -0.03930209
  19         0.13469843
  20         0.00000000
  21        -0.44948344
  22        -0.18585204
  23         0.00000000
  24         0.10593018
  25         0.00000000
  26         0.00000000
  27         0.07691649
  28        -0.02733290
  29         0.16208238
  30         0.51882449
  31        -0.09108836
  32         0.82184603
  33         0.00000000
  34        -0.41648364
  35         0.00000000
  36         0.00000000
  37         0.44827439
  38         0.00000000
  39         0.00000000
  40         0.80584536
  41         0.00000000
  42        -0.00952956
  43         0.00000000
  44         0.00000000
  45        -0.01184938
  46         0.00000000
  47         0.09599834
  48         0.00000000
  49         0.00000000
  50        -0.55175550
  51         0.00000000
  52         0.00000000
  53         0.00000000
  54        -0.03932469
  55         0.00000000
  56         0.00000000
  57         0.00000000
  58         0.13132889
Sym=    13a1 
Ene=     3.5381
Spin= Alpha
Occup=    0.00000
   1        -0.77861057
   2         0.31645386
   3         0.20616946
   4        -0.21819117
   5        -0.00342814
   6         0.00000000
   7         0.27368313
   8         0.00315894
   9         0.00000000
  10         0.63551532
  11         0.00000000
  12         0.00000000
  13        -0.01557743
  14         0.23877444
  15        -0.77861057
  16         0.31645386
  17         0.20616946
  18         0.21819117
  19        -0.00342814
  20         0.00000000
  21        -0.27368313
  22         0.00315894
  23         0.00000000
  24         0.63551532
  25         0.00000000
  26         0.00000000
  27        -0.01557743
  28        -0.23877444
  29         0.05294037
  30         0.14868158
  31        -0.01383473
  32         0.39846360
  33         0.00000000
  34         0.10894989
  35         0.00000000
  36         0.00000000
  37         0.04515196
  38         0.00000000
  39         0.00000000
  40         0.16215697
  41         0.00000000
  42        -0.04074492
  43         0.00000000
  44         0.00000000
  45         0.03267434
  46         0.00000000
  47        -0.37947101
  48         0.00000000
  49         0.00000000
  50        -0.16957642
  51         0.00000000
  52         0.00000000
  53         0.00000000
  54         0.07027298
  55         0.00000000
  56         0.00000000
  57         0.00000000
  58         0.05398998
Sym=    14a1 
Ene=     3.9074
Spin= Alpha
Occup=    0.00000
   1         0.51530465
   2        -1.01089112
   3        -0.22373560
   4        -0.46655470
   5         0.61452072
   6         0.00000000
   7         0.63934923
   8        -0.48420426
   9         0.00000000
  10        -0.12950128
  11         0.00000000
  12         0.00000000
  13        -0.41474780
  14         0.15542860
  15         0.51530465
  16        -1.01089112
  17        -0.22373560
  18         0.46655470
  19         0.61452072
  20         0.00000000
  21        -0.63934923
  22        -0.48420426
  23         0.00000000
  24        -0.12950128
  25         0.00000000
  26         0.00000000
  27        -0.41474780
  28        -0.15542860
  29        -0.00071354
  30        -0.08956947
  31        -0.04061498
  32         1.24723060
  33         0.00000000
  34        -0.01861486
  35         0.00000000
  36         0.00000000
  37         0.28912759
  38         0.00000000
  39         0.00000000
  40         0.80966315
  41         0.00000000
  42        -0.03334708
  43         0.00000000
  44         0.00000000
  45         0.02251583
  46         0.00000000
  47        -0.04240317
  48         0.00000000
  49         0.00000000
  50        -0.28044774
  51         0.00000000
  52         0.00000000
  53         0.00000000
  54        -0.07967395
  55         0.00000000
  56         0.00000000
  57         0.00000000
  58        -0.03236727
Sym=    15a1 
Ene=     4.0920
Spin= Alpha
Occup=    0.00000
   1         0.25583116
   2        -1.55601015
   3        -0.34534251
   4        -0.51631929
   5        -0.24958939
   6         0.00000000
   7         1.12900734
   8         0.71168478
   9         0.00000000
  10         0.05554951
  11         0.00000000
  12         0.00000000
  13         0.03679263
  14        -0.44742705
  15         0.25583116
  16        -1.55601015
  17        -0.34534251
  18         0.51631929
  19        -0.24958939
  20         0.00000000
  21        -1.12900734
  22         0.71168478
  23         0.00000000
  24         0.05554951
  25         0.00000000
  26         0.00000000
  27         0.03679263
  28         0.44742705
  29         0.22148099
  30         0.73933795
  31        -0.01364011
  32         2.51514432
  33         0.00000000
  34        -1.90716986
  35         0.00000000
  36         0.00000000
  37         2.02126657
  38         0.00000000
  39         0.00000000
  40         0.91801818
  41         0.00000000
  42        -0.09985643
  43         0.00000000
  44         0.00000000
  45         0.05716171
  46         0.00000000
  47        -0.03789655
  48         0.00000000
  49         0.00000000
  50         0.35416071
  51         0.00000000
  52         0.00000000
  53         0.00000000
  54        -0.06098986
  55         0.00000000
  56         0.00000000
  57         0.00000000
  58         0.03661158
Sym=    16a1 
Ene=     4.4606
Spin= Alpha
Occup=    0.00000
   1        -1.05040786
   2         0.12187531
   3         0.39860510
   4         0.27251426
   5         0.44087844
   6         0.00000000
   7        -0.13122132
   8         0.02552051
   9         0.00000000
  10        -0.02747196
  11         0.00000000
  12         0.00000000
  13         0.47090312
  14         0.18079987
  15        -1.05040786
  16         0.12187531
  17         0.39860510
  18        -0.27251426
  19         0.44087844
  20         0.00000000
  21         0.13122132
  22         0.02552051
  23         0.00000000
  24        -0.02747196
  25         0.00000000
  26         0.00000000
  27         0.47090312
  28        -0.18079987
  29        -0.33532479
  30        -0.93222290
  31         0.15403508
  32         1.44822802
  33         0.00000000
  34        -1.84986808
  35         0.00000000
  36         0.00000000
  37         1.58008277
  38         0.00000000
  39         0.00000000
  40         0.55380653
  41         0.00000000
  42         0.01297837
  43         0.00000000
  44         0.00000000
  45        -0.05706544
  46         0.00000000
  47        -0.46137762
  48         0.00000000
  49         0.00000000
  50         0.79216687
  51         0.00000000
  52         0.00000000
  53         0.00000000
  54         0.09846602
  55         0.00000000
  56         0.00000000
  57         0.00000000
  58        -0.22564952
Sym=    17a1 
Ene=     4.9149
Spin= Alpha
Occup=    0.00000
   1        -0.45653912
   2        -2.44761946
   3         0.02698755
   4         0.40071543
   5         0.52149611
   6         0.00000000
   7         1.16727861
   8         0.73626157
   9         0.00000000
  10         0.46989775
  11         0.00000000
  12         0.00000000
  13        -0.10292301
  14        -0.83182000
  15        -0.45653912
  16        -2.44761946
  17         0.02698755
  18        -0.40071543
  19         0.52149611
  20         0.00000000
  21        -1.16727861
  22         0.73626157
  23         0.00000000
  24         0.46989775
  25         0.00000000
  26         0.00000000
  27        -0.10292301
  28         0.83182000
  29         0.17031452
  30         1.59840888
  31         0.39504266
  32         3.58764458
  33         0.00000000
  34         0.18688370
  35         0.00000000
  36         0.00000000
  37         0.91571017
  38         0.00000000
  39         0.00000000
  40         0.82898375
  41         0.00000000
  42         0.11031188
  43         0.00000000
  44         0.00000000
  45        -0.16116905
  46         0.00000000
  47        -0.82262049
  48         0.00000000
  49         0.00000000
  50         1.15938086
  51         0.00000000
  52         0.00000000
  53         0.00000000
  54        -0.21231154
  55         0.00000000
  56         0.00000000
  57         0.00000000
  58         0.21050748
Sym=    18a1 
Ene=     5.2458
Spin= Alpha
Occup=    0.00000
   1         0.58156855
   2        -1.96568222
   3        -0.30388868
   4         0.32150375
   5        -0.10989996
   6         0.00000000
   7         0.93680626
   8         0.06048458
   9         0.00000000
  10         0.09898606
  11         0.00000000
  12         0.00000000
  13        -0.77266866
  14         0.04500874
  15         0.58156855
  16        -1.96568222
  17        -0.30388868
  18        -0.32150375
  19        -0.10989996
  20         0.00000000
  21        -0.93680626
  22         0.06048458
  23         0.00000000
  24         0.09898606
  25         0.00000000
  26         0.00000000
  27        -0.77266866
  28        -0.04500874
  29         0.02335819
  30         0.55211486
  31         0.23273488
  32         2.40601298
  33         0.00000000
  34        -1.65339941
  35         0.00000000
  36         0.00000000
  37         2.60519905
  38         0.00000000
  39         0.00000000
  40         1.25615086
  41         0.00000000
  42         0.05608748
  43         0.00000000
  44         0.00000000
  45        -0.01366148
  46         0.00000000
  47        -0.35354979
  48         0.00000000
  49         0.00000000
  50        -0.65779545
  51         0.00000000
  52         0.00000000
  53         0.00000000
  54         0.39225403
  55         0.00000000
  56         0.00000000
  57         0.00000000
  58         0.19485392
Sym=    19a1 
Ene=     6.1095
Spin= Alpha
Occup=    0.00000
   1        -0.21530221
   2         0.42069590
   3         0.08530513
   4        -0.21489288
   5         0.24092065
   6         0.00000000
   7        -0.23191500
   8         0.19039765
   9         0.00000000
  10        -0.17108123
  11         0.00000000
  12         0.00000000
  13         0.46983222
  14        -0.35364763
  15        -0.21530221
  16         0.42069590
  17         0.08530513
  18         0.21489288
  19         0.24092065
  20         0.00000000
  21         0.23191500
  22         0.19039765
  23         0.00000000
  24        -0.17108123
  25         0.00000000
  26         0.00000000
  27         0.46983222
  28         0.35364763
  29         0.03428802
  30         0.02643861
  31        -0.06228776
  32        -0.47921968
  33         0.00000000
  34         0.87644599
  35         0.00000000
  36         0.00000000
  37        -1.27965014
  38         0.00000000
  39         0.00000000
  40        -0.54377900
  41         0.00000000
  42         0.13148649
  43         0.00000000
  44         0.00000000
  45         0.15854357
  46         0.00000000
  47         0.07004154
  48         0.00000000
  49         0.00000000
  50         0.70996283
  51         0.00000000
  52         0.00000000
  53         0.00000000
  54         0.85026113
  55         0.00000000
  56         0.00000000