[Molden Format]
[N_Atoms]
                    3
[Atoms] (AU)
H1          1      1           1.63650282      0.94486306      0.00000000
H1          2      1          -1.63650282      0.94486306      0.00000000
O2          3      8           0.00000000      0.00000000      0.00000000
[5D]
[7F]
[Charge] (Mulliken)
   0.0000000000000000     
   0.0000000000000000     
   0.0000000000000000     
[GTO] (AU)
   1
   s   5
  3.387000000E+01  6.067999217E-03
  5.095000000E+00  4.530799416E-02
  1.159000000E+00  2.028219738E-01
  3.258000000E-01  5.039029350E-01
  1.027000000E-01  3.834209505E-01
   s   1
  3.258000000E-01  1.000000000E+00
   s   1
  1.027000000E-01  1.000000000E+00
   p   1
  1.407000000E+00  1.000000000E+00
   p   1
  3.880000000E-01  1.000000000E+00
   d   1
  1.057000000E+00  1.000000000E+00
 
   2
   s   5
  3.387000000E+01  6.067999217E-03
  5.095000000E+00  4.530799416E-02
  1.159000000E+00  2.028219738E-01
  3.258000000E-01  5.039029350E-01
  1.027000000E-01  3.834209505E-01
   s   1
  3.258000000E-01  1.000000000E+00
   s   1
  1.027000000E-01  1.000000000E+00
   p   1
  1.407000000E+00  1.000000000E+00
   p   1
  3.880000000E-01  1.000000000E+00
   d   1
  1.057000000E+00  1.000000000E+00
 
   3
   s  10
  1.533000000E+04  5.079996682E-04
  2.299000000E+03  3.928997434E-03
  5.224000000E+02  2.024298678E-02
  1.473000000E+02  7.918094828E-02
  4.755000000E+01  2.306868493E-01
  1.676000000E+01  4.331177171E-01
  6.207000000E+00  3.502597712E-01
  1.752000000E+00  4.272797209E-02
  6.882000000E-01 -8.153994674E-03
  2.384000000E-01  2.380998445E-03
   s  10
  1.533000000E+04 -1.150000604E-04
  2.299000000E+03 -8.950004697E-04
  5.224000000E+02 -4.636002433E-03
  1.473000000E+02 -1.872400983E-02
  4.755000000E+01 -5.846303068E-02
  1.676000000E+01 -1.364630716E-01
  6.207000000E+00 -1.757400922E-01
  1.752000000E+00  1.609340845E-01
  6.882000000E-01  6.034183167E-01
  2.384000000E-01  3.787651988E-01
   s   1
  1.752000000E+00  1.000000000E+00
   s   1
  2.384000000E-01  1.000000000E+00
   p   5
  3.446000000E+01  1.592799074E-02
  7.749000000E+00  9.973994203E-02
  2.280000000E+00  3.104918195E-01
  7.156000000E-01  4.910257146E-01
  2.140000000E-01  3.363368045E-01
   p   1
  7.156000000E-01  1.000000000E+00
   p   1
  2.140000000E-01  1.000000000E+00
   d   1
  2.314000000E+00  1.000000000E+00
   d   1
  6.450000000E-01  1.000000000E+00
   f   1
  1.428000000E+00  1.000000000E+00
 
[MO]
Sym=     1a1 
Ene=   -20.6870
Spin= Alpha
Occup=    2.00000
   1         0.00186124
   2        -0.00022353
   3        -0.00025126
   4        -0.00000000
   5        -0.00000000
   6         0.00000000
   7        -0.00000000
   8        -0.00000000
   9         0.00000000
  10        -0.00000000
  11         0.00000000
  12         0.00000000
  13         0.00000000
  14         0.00000000
  15         0.00186124
  16        -0.00022353
  17        -0.00025126
  18         0.00000000
  19        -0.00000000
  20         0.00000000
  21         0.00000000
  22        -0.00000000
  23         0.00000000
  24        -0.00000000
  25         0.00000000
  26         0.00000000
  27         0.00000000
  28        -0.00000000
  29         1.00145523
  30         0.00225651
  31        -0.00275750
  32        -0.00054789
  33         0.00000000
  34         0.00001936
  35         0.00000000
  36         0.00000000
  37        -0.00000056
  38         0.00000000
  39         0.00000000
  40         0.00000036
  41         0.00000000
  42         0.00000000
  43         0.00000000
  44         0.00000000
  45        -0.00000000
  46         0.00000000
  47         0.00000000
  48         0.00000000
  49         0.00000000
  50        -0.00000000
  51         0.00000000
  52         0.00000000
  53         0.00000000
  54         0.00000000
  55         0.00000000
  56         0.00000000
  57         0.00000000
  58        -0.00000000
Sym=     2a1 
Ene=    -1.5676
Spin= Alpha
Occup=    2.00000
   1         0.26393028
   2        -0.03169776
   3        -0.03562936
   4         0.00000000
   5         0.00000000
   6         0.00000000
   7         0.00000000
   8         0.00000000
   9         0.00000000
  10         0.00000000
  11         0.00000000
  12         0.00000000
  13        -0.00000000
  14        -0.00000000
  15         0.26393028
  16        -0.03169776
  17        -0.03562936
  18        -0.00000000
  19         0.00000000
  20         0.00000000
  21        -0.00000000
  22         0.00000000
  23         0.00000000
  24         0.00000000
  25         0.00000000
  26         0.00000000
  27        -0.00000000
  28         0.00000000
  29        -0.03350196
  30         0.73975439
  31         0.00929015
  32         0.02045824
  33         0.00000000
  34         0.05902785
  35         0.00000000
  36         0.00000000
  37        -0.00172260
  38         0.00000000
  39         0.00000000
  40         0.00109923
  41         0.00000000
  42         0.00000000
  43         0.00000000
  44         0.00000000
  45        -0.00000000
  46         0.00000000
  47        -0.00000000
  48         0.00000000
  49         0.00000000
  50         0.00000000
  51         0.00000000
  52         0.00000000
  53         0.00000000
  54        -0.00000000
  55         0.00000000
  56         0.00000000
  57         0.00000000
  58         0.00000000
Sym=     3a1 
Ene=    -0.6841
Spin= Alpha
Occup=    2.00000
   1         0.21206028
   2        -0.02546822
   3        -0.02862715
   4        -0.00000000
   5         0.00000000
   6         0.00000000
   7         0.00000000
   8         0.00000000
   9         0.00000000
  10         0.00000000
  11         0.00000000
  12         0.00000000
  13         0.00000000
  14        -0.00000000
  15         0.21206028
  16        -0.02546822
  17        -0.02862715
  18         0.00000000
  19         0.00000000
  20         0.00000000
  21        -0.00000000
  22         0.00000000
  23         0.00000000
  24         0.00000000
  25         0.00000000
  26         0.00000000
  27         0.00000000
  28         0.00000000
  29        -0.01551560
  30        -0.33798911
  31        -0.00415888
  32        -0.00932846
  33         0.00000000
  34         0.90637677
  35         0.00000000
  36         0.00000000
  37        -0.02645067
  38         0.00000000
  39         0.00000000
  40         0.01687878
  41         0.00000000
  42        -0.00000000
  43         0.00000000
  44         0.00000000
  45         0.00000000
  46         0.00000000
  47        -0.00000000
  48         0.00000000
  49         0.00000000
  50         0.00000000
  51         0.00000000
  52         0.00000000
  53         0.00000000
  54         0.00000000
  55         0.00000000
  56         0.00000000
  57         0.00000000
  58         0.00000000
Sym=     4a1 
Ene=    -0.2553
Spin= Alpha
Occup=    0.00000
   1        -1.05490971
   2         0.12669357
   3         0.14240790
   4        -0.00000000
   5        -0.00000000
   6         0.00000000
   7         0.00000000
   8        -0.00000000
   9         0.00000000
  10        -0.00000000
  11         0.00000000
  12         0.00000000
  13         0.00000000
  14         0.00000000
  15        -1.05490971
  16         0.12669357
  17         0.14240790
  18         0.00000000
  19        -0.00000000
  20         0.00000000
  21        -0.00000000
  22        -0.00000000
  23         0.00000000
  24        -0.00000000
  25         0.00000000
  26         0.00000000
  27         0.00000000
  28        -0.00000000
  29         0.08335535
  30         0.95477319
  31         0.01163832
  32         0.02632755
  33         0.00000000
  34         0.57890433
  35         0.00000000
  36         0.00000000
  37        -0.01689409
  38         0.00000000
  39         0.00000000
  40         0.01078050
  41         0.00000000
  42         0.00000000
  43         0.00000000
  44         0.00000000
  45        -0.00000000
  46         0.00000000
  47         0.00000000
  48         0.00000000
  49         0.00000000
  50        -0.00000000
  51         0.00000000
  52         0.00000000
  53         0.00000000
  54         0.00000000
  55         0.00000000
  56         0.00000000
  57         0.00000000
  58        -0.00000000
Sym=     5a1 
Ene=     3.5494
Spin= Alpha
Occup=    0.00000
   1        -0.10640175
   2         0.41597882
   3        -1.18244711
   4        -0.02745791
   5        -0.00139921
   6         0.00000000
   7         0.55156870
   8         0.17518287
   9         0.00000000
  10         0.02126213
  11         0.00000000
  12         0.00000000
  13        -0.02554885
  14        -0.02909552
  15        -0.10640175
  16         0.41597882
  17        -1.18244711
  18         0.02745791
  19        -0.00139921
  20         0.00000000
  21        -0.55156870
  22         0.17518287
  23         0.00000000
  24         0.02126213
  25         0.00000000
  26         0.00000000
  27        -0.02554885
  28         0.02909552
  29        -0.07155887
  30        -0.25328289
  31         0.02227820
  32         1.99986606
  33         0.00000000
  34        -0.03148157
  35         0.00000000
  36         0.00000000
  37         0.06285768
  38         0.00000000
  39         0.00000000
  40         0.39730988
  41         0.00000000
  42         0.00308800
  43         0.00000000
  44         0.00000000
  45         0.00294208
  46         0.00000000
  47        -0.08318652
  48         0.00000000
  49         0.00000000
  50         0.02462864
  51         0.00000000
  52         0.00000000
  53         0.00000000
  54        -0.00398127
  55         0.00000000
  56         0.00000000
  57         0.00000000
  58         0.00538295
Sym=     6a1 
Ene=     3.9884
Spin= Alpha
Occup=    0.00000
   1         0.42352784
   2        -3.80981560
   3        -0.62324177
   4         0.03536373
   5         0.03365806
   6         0.00000000
   7         1.63688384
   8         0.70178108
   9         0.00000000
  10         0.09635212
  11         0.00000000
  12         0.00000000
  13        -0.07223738
  14        -0.11159628
  15         0.42352784
  16        -3.80981560
  17        -0.62324177
  18        -0.03536373
  19         0.03365806
  20         0.00000000
  21        -1.63688384
  22         0.70178108
  23         0.00000000
  24         0.09635212
  25         0.00000000
  26         0.00000000
  27        -0.07223738
  28         0.11159628
  29        -0.03484659
  30        -0.13855433
  31        -0.06942223
  32         6.91728093
  33         0.00000000
  34        -0.05997348
  35         0.00000000
  36         0.00000000
  37         0.09650229
  38         0.00000000
  39         0.00000000
  40         3.02472791
  41         0.00000000
  42         0.02405015
  43         0.00000000
  44         0.00000000
  45        -0.01584736
  46         0.00000000
  47        -0.48957449
  48         0.00000000
  49         0.00000000
  50         0.37517782
  51         0.00000000
  52         0.00000000
  53         0.00000000
  54        -0.03549639
  55         0.00000000
  56         0.00000000
  57         0.00000000
  58         0.08125212
Sym=     7a1 
Ene=     4.0450
Spin= Alpha
Occup=    0.00000
   1         0.11361405
   2        -0.58811915
   3         0.18047230
   4        -0.07156305
   5         0.08286423
   6         0.00000000
   7         0.47726978
   8        -0.93875957
   9         0.00000000
  10        -0.00106577
  11         0.00000000
  12         0.00000000
  13        -0.04106652
  14         0.05354198
  15         0.11361405
  16        -0.58811915
  17         0.18047230
  18         0.07156305
  19         0.08286423
  20         0.00000000
  21        -0.47726978
  22        -0.93875957
  23         0.00000000
  24        -0.00106577
  25         0.00000000
  26         0.00000000
  27        -0.04106652
  28        -0.05354198
  29         0.05477303
  30         0.20722437
  31        -0.07157042
  32         0.03817187
  33         0.00000000
  34         0.01410776
  35         0.00000000
  36         0.00000000
  37        -0.07432444
  38         0.00000000
  39         0.00000000
  40         1.30088985
  41         0.00000000
  42        -0.00284553
  43         0.00000000
  44         0.00000000
  45         0.01710644
  46         0.00000000
  47         0.04115400
  48         0.00000000
  49         0.00000000
  50        -0.23782691
  51         0.00000000
  52         0.00000000
  53         0.00000000
  54        -0.00949325
  55         0.00000000
  56         0.00000000
  57         0.00000000
  58        -0.01198817
Sym=     8a1 
Ene=     4.6612
Spin= Alpha
Occup=    0.00000
   1         0.38757598
   2        -3.07860183
   3        -0.62606885
   4         0.02789410
   5         0.07327207
   6         0.00000000
   7         1.57036362
   8         0.60624711
   9         0.00000000
  10         0.12565079
  11         0.00000000
  12         0.00000000
  13        -0.04420235
  14        -0.16329269
  15         0.38757598
  16        -3.07860183
  17        -0.62606885
  18        -0.02789410
  19         0.07327207
  20         0.00000000
  21        -1.57036362
  22         0.60624711
  23         0.00000000
  24         0.12565079
  25         0.00000000
  26         0.00000000
  27        -0.04420235
  28         0.16329269
  29        -0.28995674
  30        -1.05650404
  31         0.19671858
  32         6.88379782
  33         0.00000000
  34        -0.18444898
  35         0.00000000
  36         0.00000000
  37         1.49589657
  38         0.00000000
  39         0.00000000
  40         0.98047601
  41         0.00000000
  42        -0.02317695
  43         0.00000000
  44         0.00000000
  45        -0.01230453
  46         0.00000000
  47        -0.17476471
  48         0.00000000
  49         0.00000000
  50         0.39600836
  51         0.00000000
  52         0.00000000
  53         0.00000000
  54        -0.02939654
  55         0.00000000
  56         0.00000000
  57         0.00000000
  58         0.08242286
Sym=     9a1 
Ene=     4.8959
Spin= Alpha
Occup=    0.00000
   1        -0.25372076
   2         0.44549431
   3         0.14251302
   4        -0.23949528
   5        -0.13880667
   6         0.00000000
   7         0.66778756
   8         0.36764454
   9         0.00000000
  10        -0.06775676
  11         0.00000000
  12         0.00000000
  13         0.04510228
  14         0.13545812
  15        -0.25372076
  16         0.44549431
  17         0.14251302
  18         0.23949528
  19        -0.13880667
  20         0.00000000
  21        -0.66778756
  22         0.36764454
  23         0.00000000
  24        -0.06775676
  25         0.00000000
  26         0.00000000
  27         0.04510228
  28        -0.13545812
  29         0.54037716
  30         1.94835517
  31        -0.30303059
  32        -1.58522078
  33         0.00000000
  34         0.06005753
  35         0.00000000
  36         0.00000000
  37         0.10997244
  38         0.00000000
  39         0.00000000
  40        -0.31114654
  41         0.00000000
  42        -0.02038096
  43         0.00000000
  44         0.00000000
  45         0.02071264
  46         0.00000000
  47         0.36680683
  48         0.00000000
  49         0.00000000
  50        -0.35565543
  51         0.00000000
  52         0.00000000
  53         0.00000000
  54         0.04222222
  55         0.00000000
  56         0.00000000
  57         0.00000000
  58        -0.11777185
Sym=    10a1 
Ene=     5.5791
Spin= Alpha
Occup=    0.00000
   1        -0.18487047
   2        -1.45371812
   3        -0.11112920
   4        -0.02486471
   5         0.04216172
   6         0.00000000
   7         0.98676236
   8        -0.18176287
   9         0.00000000
  10        -0.02874106
  11         0.00000000
  12         0.00000000
  13        -0.04577634
  14        -0.07417674
  15        -0.18487047
  16        -1.45371812
  17        -0.11112920
  18         0.02486471
  19         0.04216172
  20         0.00000000
  21        -0.98676236
  22        -0.18176287
  23         0.00000000
  24        -0.02874106
  25         0.00000000
  26         0.00000000
  27        -0.04577634
  28         0.07417674
  29        -0.11745673
  30        -0.41802850
  31         0.04531794
  32         3.33326714
  33         0.00000000
  34        -0.02669893
  35         0.00000000
  36         0.00000000
  37         0.43835570
  38         0.00000000
  39         0.00000000
  40         1.34959769
  41         0.00000000
  42         0.08355844
  43         0.00000000
  44         0.00000000
  45         0.08744391
  46         0.00000000
  47        -0.92137455
  48         0.00000000
  49         0.00000000
  50        -0.81445265
  51         0.00000000
  52         0.00000000
  53         0.00000000
  54        -0.00113360
  55         0.00000000
  56         0.00000000
  57         0.00000000
  58         0.01756101
Sym=    11a1 
Ene=     5.9202
Spin= Alpha
Occup=    0.00000
   1         0.70281375
   2        -3.97209427
   3        -0.37845552
   4         0.09241326
   5        -0.00546017
   6         0.00000000
   7         1.53137638
   8         0.98584536
   9         0.00000000
  10         0.02441202
  11         0.00000000
  12         0.00000000
  13        -0.02457548
  14        -0.15316160
  15         0.70281375
  16        -3.97209427
  17        -0.37845552
  18        -0.09241326
  19        -0.00546017
  20         0.00000000
  21        -1.53137638
  22         0.98584536
  23         0.00000000
  24         0.02441202
  25         0.00000000
  26         0.00000000
  27        -0.02457548
  28         0.15316160
  29         0.35255291
  30         1.25892081
  31        -0.32092995
  32         5.20018317
  33         0.00000000
  34        -0.05458888
  35         0.00000000
  36         0.00000000
  37         1.00426289
  38         0.00000000
  39         0.00000000
  40         1.46176351
  41         0.00000000
  42         0.08814882
  43         0.00000000
  44         0.00000000
  45        -0.08705756
  46         0.00000000
  47        -1.27407071
  48         0.00000000
  49         0.00000000
  50         1.25178558
  51         0.00000000
  52         0.00000000
  53         0.00000000
  54        -0.02141548
  55         0.00000000
  56         0.00000000
  57         0.00000000
  58         0.06400790
Sym=    12a1 
Ene=     6.7166
Spin= Alpha
Occup=    0.00000
   1         2.67444181
   2        -2.85202667
   3        -0.84655407
   4         0.05826168
   5         0.10196667
   6         0.00000000
   7         0.39684606
   8        -0.00994544
   9         0.00000000
  10         0.46384980
  11         0.00000000
  12         0.00000000
  13         0.14593279
  14         0.18892338
  15         2.67444181
  16        -2.85202667
  17        -0.84655407
  18        -0.05826168
  19         0.10196667
  20         0.00000000
  21        -0.39684606
  22        -0.00994544
  23         0.00000000
  24         0.46384980
  25         0.00000000
  26         0.00000000
  27         0.14593279
  28        -0.18892338
  29         0.21735835
  30         0.75442874
  31        -0.16699509
  32         0.87978926
  33         0.00000000
  34        -0.06805486
  35         0.00000000
  36         0.00000000
  37         0.24732740
  38         0.00000000
  39         0.00000000
  40         0.64345971
  41         0.00000000
  42         0.00683056
  43         0.00000000
  44         0.00000000
  45         0.02596111
  46         0.00000000
  47        -0.33865336
  48         0.00000000
  49         0.00000000
  50        -0.22725767
  51         0.00000000
  52         0.00000000
  53         0.00000000
  54        -0.00817387
  55         0.00000000
  56         0.00000000
  57         0.00000000
  58         0.15493743
Sym=    13a1 
Ene=     7.0021
Spin= Alpha
Occup=    0.00000
   1        -2.80298270
   2         2.01539516
   3         0.83686766
   4        -0.24640638
   5        -0.09415483
   6         0.00000000
   7         0.20751171
   8         0.09597259
   9         0.00000000
  10         0.48902210
  11         0.00000000
  12         0.00000000
  13        -0.14163196
  14         0.13770621
  15        -2.80298270
  16         2.01539516
  17         0.83686766
  18         0.24640638
  19        -0.09415483
  20         0.00000000
  21        -0.20751171
  22         0.09597259
  23         0.00000000
  24         0.48902210
  25         0.00000000
  26         0.00000000
  27        -0.14163196
  28        -0.13770621
  29        -0.07731043
  30        -0.26231107
  31         0.11311291
  32         0.41638110
  33         0.00000000
  34         0.06664430
  35         0.00000000
  36         0.00000000
  37         0.12165108
  38         0.00000000
  39         0.00000000
  40        -0.08481861
  41         0.00000000
  42         0.01686227
  43         0.00000000
  44         0.00000000
  45         0.01359920
  46         0.00000000
  47        -0.38922006
  48         0.00000000
  49         0.00000000
  50        -0.00128203
  51         0.00000000
  52         0.00000000
  53         0.00000000
  54         0.07621309
  55         0.00000000
  56         0.00000000
  57         0.00000000
  58        -0.08131020
Sym=    14a1 
Ene=     7.4335
Spin= Alpha
Occup=    0.00000
   1         0.87072363
   2        -1.40449346
   3        -0.33205977
   4        -0.36179502
   5         0.62197007
   6         0.00000000
   7         0.65494228
   8        -0.51920306
   9         0.00000000
  10        -0.08726136
  11         0.00000000
  12         0.00000000
  13        -0.49633221
  14         0.22832017
  15         0.87072363
  16        -1.40449346
  17        -0.33205977
  18         0.36179502
  19         0.62197007
  20         0.00000000
  21        -0.65494228
  22        -0.51920306
  23         0.00000000
  24        -0.08726136
  25         0.00000000
  26         0.00000000
  27        -0.49633221
  28        -0.22832017
  29        -0.01836321
  30        -0.07430654
  31        -0.00795240
  32         1.41484905
  33         0.00000000
  34        -0.06166115
  35         0.00000000
  36         0.00000000
  37         0.46317424
  38         0.00000000
  39         0.00000000
  40         0.90121080
  41         0.00000000
  42        -0.00709714
  43         0.00000000
  44         0.00000000
  45         0.00908338
  46         0.00000000
  47        -0.12223555
  48         0.00000000
  49         0.00000000
  50        -0.41433105
  51         0.00000000
  52         0.00000000
  53         0.00000000
  54        -0.06722455
  55         0.00000000
  56         0.00000000
  57         0.00000000
  58         0.01152633
Sym=    15a1 
Ene=     7.8526
Spin= Alpha
Occup=    0.00000
   1         1.46301236
   2        -2.21067152
   3        -0.70559956
   4        -0.51927231
   5        -0.29909064
   6         0.00000000
   7         1.13221412
   8         0.59807227
   9         0.00000000
  10         0.16458071
  11         0.00000000
  12         0.00000000
  13        -0.26447813
  14        -0.60196292
  15         1.46301236
  16        -2.21067152
  17        -0.70559956
  18         0.51927231
  19        -0.29909064
  20         0.00000000
  21        -1.13221412
  22         0.59807227
  23         0.00000000
  24         0.16458071
  25         0.00000000
  26         0.00000000
  27        -0.26447813
  28         0.60196292
  29         0.47495376
  30         1.65711601
  31        -0.08978602
  32         1.41804644
  33         0.00000000
  34        -0.06046650
  35         0.00000000
  36         0.00000000
  37         0.48874657
  38         0.00000000
  39         0.00000000
  40         0.52809753
  41         0.00000000
  42        -0.08861129
  43         0.00000000
  44         0.00000000
  45         0.06460844
  46         0.00000000
  47         0.13420103
  48         0.00000000
  49         0.00000000
  50        -0.02818039
  51         0.00000000
  52         0.00000000
  53         0.00000000
  54        -0.13747665
  55         0.00000000
  56         0.00000000
  57         0.00000000
  58         0.20675590
Sym=    16a1 
Ene=     8.4961
Spin= Alpha
Occup=    0.00000
   1        -1.04173991
   2         0.25828240
   3         0.34496298
   4        -0.19855942
   5         0.51585549
   6         0.00000000
   7        -0.00498524
   8         0.41376073
   9         0.00000000
  10         0.07498463
  11         0.00000000
  12         0.00000000
  13         0.77310217
  14        -0.42480143
  15        -1.04173991
  16         0.25828240
  17         0.34496298
  18         0.19855942
  19         0.51585549
  20         0.00000000
  21         0.00498524
  22         0.41376073
  23         0.00000000
  24         0.07498463
  25         0.00000000
  26         0.00000000
  27         0.77310217
  28         0.42480143
  29         0.04386281
  30         0.17963395
  31        -0.06374944
  32         0.63817678
  33         0.00000000
  34        -0.07376913
  35         0.00000000
  36         0.00000000
  37        -0.40273976
  38         0.00000000
  39         0.00000000
  40        -0.09959347
  41         0.00000000
  42         0.00815044
  43         0.00000000
  44         0.00000000
  45        -0.10499196
  46         0.00000000
  47        -0.24207706
  48         0.00000000
  49         0.00000000
  50         1.45049088
  51         0.00000000
  52         0.00000000
  53         0.00000000
  54        -0.16859220
  55         0.00000000
  56         0.00000000
  57         0.00000000
  58        -0.18156701
Sym=    17a1 
Ene=     9.4614
Spin= Alpha
Occup=    0.00000
   1         0.18151718
   2        -3.21858900
   3        -0.06945583
   4         0.65913009
   5         0.44755999
   6         0.00000000
   7         1.44224357
   8         0.72637389
   9         0.00000000
  10         0.49838709
  11         0.00000000
  12         0.00000000
  13        -0.44433661
  14        -0.74649633
  15         0.18151718
  16        -3.21858900
  17        -0.06945583
  18        -0.65913009
  19         0.44755999
  20         0.00000000
  21        -1.44224357
  22         0.72637389
  23         0.00000000
  24         0.49838709
  25         0.00000000
  26         0.00000000
  27        -0.44433661
  28         0.74649633
  29         1.03759574
  30         3.82594188
  31        -0.61327432
  32         2.52084544
  33         0.00000000
  34        -0.01263068
  35         0.00000000
  36         0.00000000
  37         1.54980740
  38         0.00000000
  39         0.00000000
  40         1.02513101
  41         0.00000000
  42         0.10997642
  43         0.00000000
  44         0.00000000
  45        -0.11071694
  46         0.00000000
  47        -0.85314371
  48         0.00000000
  49         0.00000000
  50         0.69224624
  51         0.00000000
  52         0.00000000
  53         0.00000000
  54         0.01414891
  55         0.00000000
  56         0.00000000
  57         0.00000000
  58         0.16367508
Sym=    18a1 
Ene=     9.8372
Spin= Alpha
Occup=    0.00000
   1         0.07315700
   2         0.04991762
   3        -0.05305884
   4        -0.22634482
   5         0.14304574
   6         0.00000000
   7        -0.06634302
   8         0.19211581
   9         0.00000000
  10        -0.17815432
  11         0.00000000
  12         0.00000000
  13         0.29942919
  14        -0.23813572
  15         0.07315700
  16         0.04991762
  17        -0.05305884
  18         0.22634482
  19         0.14304574
  20         0.00000000
  21         0.06634302
  22         0.19211581
  23         0.00000000
  24        -0.17815432
  25         0.00000000
  26         0.00000000
  27         0.29942919
  28         0.23813572
  29        -0.02904956
  30        -0.11254667
  31         0.03098076
  32        -0.01085227
  33         0.00000000
  34        -0.21259082
  35         0.00000000
  36         0.00000000
  37        -0.14768710
  38         0.00000000
  39         0.00000000
  40        -0.14497036
  41         0.00000000
  42        -0.00454687
  43         0.00000000
  44         0.00000000
  45         0.00731123
  46         0.00000000
  47         0.14191572
  48         0.00000000
  49         0.00000000
  50         0.54109185
  51         0.00000000
  52         0.00000000
  53         0.00000000
  54         0.98347097
  55         0.00000000
  56         0.00000000
  57         0.00000000
  58         0.21965493
Sym=    19a1 
Ene=    11.3090
Spin= Alpha
Occup=    0.00000
   1        -3.10369590
   2         1.53817771
   3         1.17254437
   4         0.50261897
   5         0.45323079
   6         0.00000000
   7        -0.20598899
   8         0.02033773
   9         0.00000000
  10        -0.02614565
  11         0.00000000
  12         0.00000000
  13         0.13275835
  14        -0.16923421
  15        -3.10369590
  16         1.53817771
  17         1.17254437
  18        -0.50261897
  19         0.45323079
  20         0.00000000
  21         0.20598899
  22         0.02033773
  23         0.00000000
  24        -0.02614565
  25         0.00000000
  26         0.00000000
  27         0.13275835
  28         0.16923421
  29         0.01855274
  30         0.21350565
  31        -0.12110924
  32         0.45344083
  33         0.00000000
  34         0.79978298
  35         0.00000000
  36         0.00000000
  37        -0.47985363
  38         0.00000000
  39         0.00000000
  40        -0.16567221
  41         0.00000000
  42         0.15666971
  43         0.00000000
  44         0.00000000
  45        -0.03876000
  46         0.00000000
  47        -0.57377607
  48         0.00000000
  49         0.00000000
  50         0.81416936
  51         0.00000000
  52         0.00000000
  53         0.00000000
  54        -0.28554577
  55         0.00000000
  56         0.00000000