[Molden Format]
[N_Atoms]
                    3
[Atoms] (AU)
H1          1      1           1.63650282      0.94486306      0.00000000
H1          2      1          -1.63650282      0.94486306      0.00000000
O2          3      8           0.00000000      0.00000000      0.00000000
[5D]
[Charge] (Mulliken)
   0.0000000000000000     
   0.0000000000000000     
   0.0000000000000000     
[GTO] (AU)
   1
   s   4
  1.301000000E+01  1.968498999E-02
  1.962000000E+00  1.379769298E-01
  4.446000000E-01  4.781477569E-01
  1.220000000E-01  5.012397451E-01
   s   1
  1.220000000E-01  1.000000000E+00
   p   1
  7.270000000E-01  1.000000000E+00
 
   2
   s   4
  1.301000000E+01  1.968498999E-02
  1.962000000E+00  1.379769298E-01
  4.446000000E-01  4.781477569E-01
  1.220000000E-01  5.012397451E-01
   s   1
  1.220000000E-01  1.000000000E+00
   p   1
  7.270000000E-01  1.000000000E+00
 
   3
   s   9
  1.172000000E+04  7.100002503E-04
  1.759000000E+03  5.470001928E-03
  4.008000000E+02  2.783700981E-02
  1.137000000E+02  1.048000369E-01
  3.703000000E+01  2.830620998E-01
  1.327000000E+01  4.487191582E-01
  5.025000000E+00  2.709520955E-01
  1.013000000E+00  1.545800545E-02
  3.023000000E-01 -2.585000911E-03
   s   9
  1.172000000E+04 -1.600000154E-04
  1.759000000E+03 -1.263000121E-03
  4.008000000E+02 -6.267000602E-03
  1.137000000E+02 -2.571600247E-02
  3.703000000E+01 -7.092400682E-02
  1.327000000E+01 -1.654110159E-01
  5.025000000E+00 -1.169550112E-01
  1.013000000E+00  5.573680536E-01
  3.023000000E-01  5.727590551E-01
   s   1
  3.023000000E-01  1.000000000E+00
   p   4
  1.770000000E+01  4.301799242E-02
  3.854000000E+00  2.289129597E-01
  1.046000000E+00  5.087279104E-01
  2.753000000E-01  4.605309189E-01
   p   1
  2.753000000E-01  1.000000000E+00
   d   1
  1.185000000E+00  1.000000000E+00
 
[MO]
Sym=     1a1 
Ene=   -20.6870
Spin= Alpha
Occup=    2.00000
   1         0.00166913
   2        -0.00024240
   3         0.00000000
   4        -0.00000000
   5         0.00000000
   6         0.00166913
   7        -0.00024240
   8        -0.00000000
   9        -0.00000000
  10         0.00000000
  11         0.99924521
  12        -0.00287147
  13         0.00303257
  14         0.00000000
  15         0.00001913
  16         0.00000000
  17         0.00000000
  18         0.00000036
  19         0.00000000
  20        -0.00000000
  21         0.00000000
  22         0.00000000
  23        -0.00000000
  24         0.00000000
Sym=     2a1 
Ene=    -1.5649
Spin= Alpha
Occup=    2.00000
   1         0.23208351
   2        -0.03370456
   3         0.00000000
   4         0.00000000
   5         0.00000000
   6         0.23208351
   7        -0.03370456
   8        -0.00000000
   9         0.00000000
  10         0.00000000
  11        -0.02799376
  12         0.75305286
  13         0.01338069
  14         0.00000000
  15         0.05730283
  16         0.00000000
  17         0.00000000
  18         0.00107086
  19         0.00000000
  20        -0.00000000
  21         0.00000000
  22         0.00000000
  23         0.00000000
  24         0.00000000
Sym=     3a1 
Ene=    -0.6828
Spin= Alpha
Occup=    2.00000
   1         0.18760639
   2        -0.02724533
   3         0.00000000
   4         0.00000000
   5         0.00000000
   6         0.18760639
   7        -0.02724533
   8        -0.00000000
   9         0.00000000
  10         0.00000000
  11        -0.01857582
  12        -0.34320711
  13        -0.00619501
  14         0.00000000
  15         0.88033492
  16         0.00000000
  17         0.00000000
  18         0.01645151
  19         0.00000000
  20        -0.00000000
  21         0.00000000
  22         0.00000000
  23         0.00000000
  24         0.00000000
Sym=     4a1 
Ene=    -0.2537
Spin= Alpha
Occup=    0.00000
   1        -0.93295364
   2         0.13548913
   3        -0.00000000
   4        -0.00000000
   5         0.00000000
   6        -0.93295364
   7         0.13548913
   8         0.00000000
   9        -0.00000000
  10         0.00000000
  11         0.09275352
  12         0.96921205
  13         0.01761900
  14         0.00000000
  15         0.56429556
  16         0.00000000
  17         0.00000000
  18         0.01054543
  19         0.00000000
  20         0.00000000
  21         0.00000000
  22         0.00000000
  23        -0.00000000
  24         0.00000000
Sym=     5a1 
Ene=     3.9938
Spin= Alpha
Occup=    0.00000
   1         0.86757963
   2        -1.43550831
   3         0.36190605
   4         0.09667590
   5         0.00000000
   6         0.86757963
   7        -1.43550831
   8        -0.36190605
   9         0.09667590
  10         0.00000000
  11        -0.15386197
  12        -0.55280083
  13         1.59762074
  14         0.00000000
  15        -0.05658427
  16         0.00000000
  17         0.00000000
  18         0.30424540
  19         0.00000000
  20        -0.08452366
  21         0.00000000
  22         0.00000000
  23         0.06216858
  24         0.00000000
Sym=     6a1 
Ene=     4.9857
Spin= Alpha
Occup=    0.00000
   1        -0.17134135
   2        -0.11281307
   3        -0.07522271
   4         0.75826858
   5         0.00000000
   6        -0.17134135
   7        -0.11281307
   8         0.07522271
   9         0.75826858
  10         0.00000000
  11        -0.09915402
  12        -0.39750874
  13         1.01013778
  14         0.00000000
  15        -0.07678870
  16         0.00000000
  17         0.00000000
  18        -0.08599904
  19         0.00000000
  20        -0.06436236
  21         0.00000000
  22         0.00000000
  23         0.01018915
  24         0.00000000
Sym=     7a1 
Ene=     5.5548
Spin= Alpha
Occup=    0.00000
   1        -1.78847931
   2         0.68325730
   3         0.77372805
   4         0.03126433
   5         0.00000000
   6        -1.78847931
   7         0.68325730
   8        -0.77372805
   9         0.03126433
  10         0.00000000
  11        -0.25807984
  12        -0.87404700
  13         2.67289341
  14         0.00000000
  15        -0.48302511
  16         0.00000000
  17         0.00000000
  18         1.77245440
  19         0.00000000
  20         0.04230912
  21         0.00000000
  22         0.00000000
  23         0.06012951
  24         0.00000000
Sym=     8a1 
Ene=     6.7879
Spin= Alpha
Occup=    0.00000
   1        -0.38039975
   2         0.00541730
   3         0.31571347
   4         0.09458315
   5         0.00000000
   6        -0.38039975
   7         0.00541730
   8        -0.31571347
   9         0.09458315
  10         0.00000000
  11        -0.37196407
  12        -1.68861798
  13         2.48659167
  14         0.00000000
  15         1.08250465
  16         0.00000000
  17         0.00000000
  18        -0.96874529
  19         0.00000000
  20         0.30630422
  21         0.00000000
  22         0.00000000
  23        -0.04364773
  24         0.00000000
Sym=     9a1 
Ene=     7.0518
Spin= Alpha
Occup=    0.00000
   1         0.41469547
   2         0.01337508
   3         0.37788756
   4         0.21107343
   5         0.00000000
   6         0.41469547
   7         0.01337508
   8        -0.37788756
   9         0.21107343
  10         0.00000000
  11         0.63260610
  12         2.86231848
  13        -3.13647888
  14         0.00000000
  15         0.48426166
  16         0.00000000
  17         0.00000000
  18        -0.62955962
  19         0.00000000
  20         0.22335124
  21         0.00000000
  22         0.00000000
  23        -0.11741853
  24         0.00000000
Sym=    10a1 
Ene=     7.4862
Spin= Alpha
Occup=    0.00000
   1         0.44221134
   2        -0.17739682
   3        -0.33290129
   4         0.18913119
   5         0.00000000
   6         0.44221134
   7        -0.17739682
   8         0.33290129
   9         0.18913119
  10         0.00000000
  11         0.07380828
  12         0.27051602
  13        -0.73087351
  14         0.00000000
  15        -0.20120656
  16         0.00000000
  17         0.00000000
  18        -0.19951612
  19         0.00000000
  20         0.64390430
  21         0.00000000
  22         0.00000000
  23         0.80844391
  24         0.00000000
Sym=    11a1 
Ene=     8.4918
Spin= Alpha
Occup=    0.00000
   1        -1.56643112
   2         0.69860882
   3         0.66695663
   4         0.43985754
   5         0.00000000
   6        -1.56643112
   7         0.69860882
   8        -0.66695663
   9         0.43985754
  10         0.00000000
  11        -0.08169947
  12        -0.12299102
  13         1.71473018
  14         0.00000000
  15         0.64164951
  16         0.00000000
  17         0.00000000
  18         0.06271320
  19         0.00000000
  20        -0.87033181
  21         0.00000000
  22         0.00000000
  23         0.82100517
  24         0.00000000
Sym=     1b1 
Ene=    -0.8231
Spin= Alpha
Occup=    2.00000
   1         0.34457440
   2        -0.05004116
   3        -0.00000000
   4        -0.00000000
   5         0.00000000
   6        -0.34457440
   7         0.05004116
   8        -0.00000000
   9         0.00000000
  10         0.00000000
  11         0.00000000
  12         0.00000000
  13         0.00000000
  14         0.72490990
  15         0.00000000
  16         0.00000000
  17         0.01354696
  18         0.00000000
  19         0.00000000
  20         0.00000000
  21         0.00000000
  22         0.00000000
  23         0.00000000
  24        -0.00000000
Sym=     2b1 
Ene=    -0.1855
Spin= Alpha
Occup=    0.00000
   1        -1.11726976
   2         0.16225662
   3        -0.00000000
   4        -0.00000000
   5         0.00000000
   6         1.11726976
   7        -0.16225662
   8        -0.00000000
   9         0.00000000
  10         0.00000000
  11         0.00000000
  12         0.00000000
  13         0.00000000
  14         0.99220909
  15         0.00000000
  16         0.00000000
  17         0.01854219
  18         0.00000000
  19         0.00000000
  20         0.00000000
  21         0.00000000
  22         0.00000000
  23         0.00000000
  24        -0.00000000
Sym=     3b1 
Ene=     3.8805
Spin= Alpha
Occup=    0.00000
   1         0.82455586
   2        -1.97849216
   3         0.23082198
   4         0.21874953
   5         0.00000000
   6        -0.82455586
   7         1.97849216
   8         0.23082198
   9        -0.21874953
  10         0.00000000
  11         0.00000000
  12         0.00000000
  13         0.00000000
  14        -0.09959442
  15         0.00000000
  16         0.00000000
  17         0.75402043
  18         0.00000000
  19         0.00000000
  20         0.00000000
  21         0.00000000
  22         0.00000000
  23         0.00000000
  24         0.11022615
Sym=     4b1 
Ene=     4.9776
Spin= Alpha
Occup=    0.00000
   1        -0.84202986
   2         0.02753727
   3         0.66695144
   4        -0.18792250
   5         0.00000000
   6         0.84202986
   7        -0.02753727
   8         0.66695144
   9         0.18792250
  10         0.00000000
  11         0.00000000
  12         0.00000000
  13         0.00000000
  14        -0.25192267
  15         0.00000000
  16         0.00000000
  17         1.18791408
  18         0.00000000
  19         0.00000000
  20         0.00000000
  21         0.00000000
  22         0.00000000
  23         0.00000000
  24         0.09530217
Sym=     5b1 
Ene=     5.3464
Spin= Alpha
Occup=    0.00000
   1        -1.58295374
   2         0.43866180
   3         0.10061364
   4         0.76538907
   5         0.00000000
   6         1.58295374
   7        -0.43866180
   8         0.10061364
   9        -0.76538907
  10         0.00000000
  11         0.00000000
  12         0.00000000
  13         0.00000000
  14        -0.29072205
  15         0.00000000
  16         0.00000000
  17         2.03617654
  18         0.00000000
  19         0.00000000
  20         0.00000000
  21         0.00000000
  22         0.00000000
  23         0.00000000
  24         0.02817918
Sym=     6b1 
Ene=     7.0459
Spin= Alpha
Occup=    0.00000
   1        -0.36521773
   2         0.09561388
   3        -0.46105318
   4        -0.33039881
   5         0.00000000
   6         0.36521773
   7        -0.09561388
   8        -0.46105318
   9         0.33039881
  10         0.00000000
  11         0.00000000
  12         0.00000000
  13         0.00000000
  14        -1.19268382
  15         0.00000000
  16         0.00000000
  17         1.31730715
  18         0.00000000
  19         0.00000000
  20         0.00000000
  21         0.00000000
  22         0.00000000
  23         0.00000000
  24         0.38596778
Sym=     7b1 
Ene=     8.5711
Spin= Alpha
Occup=    0.00000
   1        -1.35183368
   2         0.55624319
   3         0.65540188
   4         0.35834938
   5         0.00000000
   6         1.35183368
   7        -0.55624319
   8         0.65540188
   9        -0.35834938
  10         0.00000000
  11         0.00000000
  12         0.00000000
  13         0.00000000
  14         0.82625829
  15         0.00000000
  16         0.00000000
  17         0.36234887
  18         0.00000000
  19         0.00000000
  20         0.00000000
  21         0.00000000
  22         0.00000000
  23         0.00000000
  24         1.20425587
Sym=     1a2 
Ene=     4.8747
Spin= Alpha
Occup=    0.00000
   1         0.00000000
   2         0.00000000
   3         0.00000000
   4         0.00000000
   5         0.70732554
   6         0.00000000
   7         0.00000000
   8         0.00000000
   9         0.00000000
  10        -0.70732554
  11         0.00000000
  12         0.00000000
  13         0.00000000
  14         0.00000000
  15         0.00000000
  16         0.00000000
  17         0.00000000
  18         0.00000000
  19         0.00000000
  20         0.00000000
  21         0.02673200
  22         0.00000000
  23         0.00000000
  24         0.00000000
Sym=     2a2 
Ene=     7.5380
Spin= Alpha
Occup=    0.00000
   1         0.00000000
   2         0.00000000
   3         0.00000000
   4         0.00000000
   5        -0.29318435
   6         0.00000000
   7         0.00000000
   8         0.00000000
   9         0.00000000
  10         0.29318435
  11         0.00000000
  12         0.00000000
  13         0.00000000
  14         0.00000000
  15         0.00000000
  16         0.00000000
  17         0.00000000
  18         0.00000000
  19         0.00000000
  20         0.00000000
  21         1.07142038
  22         0.00000000
  23         0.00000000
  24         0.00000000
Sym=     1b2 
Ene=    -0.6338
Spin= Alpha
Occup=    2.00000
   1         0.00000000
   2         0.00000000
   3         0.00000000
   4         0.00000000
   5         0.00000000
   6         0.00000000
   7         0.00000000
   8         0.00000000
   9         0.00000000
  10         0.00000000
  11         0.00000000
  12         0.00000000
  13         0.00000000
  14         0.00000000
  15         0.00000000
  16         0.98512832
  17         0.00000000
  18         0.00000000
  19         0.01840986
  20         0.00000000
  21         0.00000000
  22        -0.00000000
  23         0.00000000
  24         0.00000000
Sym=     2b2 
Ene=     5.1254
Spin= Alpha
Occup=    0.00000
   1         0.00000000
   2         0.00000000
   3         0.00000000
   4         0.00000000
   5        -0.80734711
   6         0.00000000
   7         0.00000000
   8         0.00000000
   9         0.00000000
  10        -0.80734711
  11         0.00000000
  12         0.00000000
  13         0.00000000
  14         0.00000000
  15         0.00000000
  16        -0.06306404
  17         0.00000000
  18         0.00000000
  19         0.65539456
  20         0.00000000
  21         0.00000000
  22        -0.04889846
  23         0.00000000
  24         0.00000000
Sym=     3b2 
Ene=     6.4616
Spin= Alpha
Occup=    0.00000
   1         0.00000000
   2         0.00000000
   3         0.00000000
   4         0.00000000
   5         0.01044852
   6         0.00000000
   7         0.00000000
   8         0.00000000
   9         0.00000000
  10         0.01044852
  11         0.00000000
  12         0.00000000
  13         0.00000000
  14         0.00000000
  15         0.00000000
  16        -1.36490484
  17         0.00000000
  18         0.00000000
  19         1.67539616
  20         0.00000000
  21         0.00000000
  22         0.00778398
  23         0.00000000
  24         0.00000000
Sym=     4b2 
Ene=     7.3245
Spin= Alpha
Occup=    0.00000
   1         0.00000000
   2         0.00000000
   3         0.00000000
   4         0.00000000
   5        -0.23891994
   6         0.00000000
   7         0.00000000
   8         0.00000000
   9         0.00000000
  10        -0.23891994
  11         0.00000000
  12         0.00000000
  13         0.00000000
  14         0.00000000
  15         0.00000000
  16        -0.00324935
  17         0.00000000
  18         0.00000000
  19         0.17494829
  20         0.00000000
  21         0.00000000
  22         1.02833733
  23         0.00000000
  24         0.00000000
