   This run of MOLCAS is using the pymolcas driver

                             OPE
                             OPE          NMOL  CASOP  ENMOLC A   SO
                 OPE        NMOLC        AS  OP EN  MO LC     AS  OP
                OPENM       OL CA        SO  PE NM  OL CA     SOP EN
                OP EN      MO   LC       AS  OP ENMOL  CASO   PENMOL
                OP  EN     MO   LC       AS  OP EN     MO     LC ASO
               OP   E  NMOL  C  AS       OP  EN MO     LC     AS  OP
               OP  E   NMO   LC AS        OPEN  MO     LCASOP EN   M
               O  PEN   MO  LCA  SO
            OPE   NMO   L   CAS    OP
        OPENMOL  CASOP     ENMOL   CASOPE
     OPENMOLCA   SOPENMOLCASOPEN   MOLCASOPE
    OPENMOLCAS   OP           EN   MOL    CAS
    OPENMOLCAS       OP  ENM        O     LCA
    OPENMOLCAS    OPEN  MOLCASO     P  E  NMO
    OPENMOLCAS     OP               E  N  MOL
    OPENMOLCA   SO           PENM   O  L  CAS    OPEN    MO    LCAS
    OPENMOLCA   SOP           ENM   O  L  CAS   OP  EN  MOLC  AS   O
    OPENMOLCA   SOPE           NM      O  LCA   S      OP  EN MO
    OPENMOLC                AS         O  PEN   M      OL  CA  SOPE
    OPENMO        LCASOPE  NMOL        C  ASO   P      ENMOLC     AS
    OPE     NMO      LCA  SO     P     E   NM   OL  CA SO  PE N   MO
          OPENMOLCA            SOPE   NMO        LCAS  O    P  ENMO
     OPENMOLCASOPENMOLCASOPENMOLCASOPENMOLCA
        OPENMOLCASOPENMOLCASOPENMOLCASOPE
            OPENMOLCASOPENMOLCASOPENM
               OPENMOLCASOPENMOLCA        version: 24.02
                   OPENMOLCASO
                       OPE                tag: 428-g03afa2e9a

 OpenMolcas is free software; you can redistribute it and/or modify it
 under the terms of the GNU Lesser General Public License version 2.1.
 OpenMolcas is distributed in the hope that it will be useful, but it
 is provided "as is" and without any express or implied warranties.
 For more details see the full text of the license in the file
 LICENSE or in <http://www.gnu.org/licenses/>.

                 Copyright (C) The OpenMolcas Authors
           For the author list and the recommended citation,
                   consult the file CONTRIBUTORS.md

           *************************************************
           * pymolcas version py2.28                       *
           *   build c4a6d18ded8cb6cad61d2372a9abd97c      *
           *   (after the EMIL interpreter by V. Veryazov) *
           *************************************************

configuration info
------------------
Host name: DESKTOP-ET1S6F4 (Linux)
C Compiler ID: GNU
C flags: -std=gnu99 -fopenmp
Fortran Compiler ID: GNU
Fortran flags: -fno-aggressive-loop-optimizations -cpp -fdefault-integer-8 -fopenmp
Definitions: _WARNING_WORKAROUND_;_MOLCAS_;_I8_;_LINUX_
Parallel: OFF (GA=OFF)


   ----------------------------------------------------------------------
  |
  |           Project: h2o_PVTZ
  |    Submitted from: /home/kenya/molcas_test/0423
  |      Scratch area: /tmp/h2o_PVTZ
  |   Save outputs to: /home/kenya/molcas_test/0423
  |            Molcas: /home/kenya/OpenMolcas/builds/gnu_dev_omp
  |
  | Scratch area is NOT empty
  |
  |    MOLCAS_DRIVER = /home/kenya/OpenMolcas/builds/gnu_dev_omp/pymolcas
  |    MOLCAS_NPROCS = 1
  |    MOLCAS_SOURCE = /home/kenya/OpenMolcas
  | MOLCAS_STRUCTURE = 0
  |
   ----------------------------------------------------------------------

++ ---------   Input file   ---------

&GATEWAY
  Coord = 3
  Angstrom
  H 0.8660 0.5 0.0
  H -0.8660 0.5 0.0
  O 0.0 0.0 0.0
  Basis = cc-pVTZ
  Group = Full
  NoCD

&SEWARD

&SCF

-- ----------------------------------

--- Start Module: gateway at Wed Apr 24 12:23:48 2024 ---

()()()()()()()()()()()()()()()()()()()()()()()()()()()()()()()()()()()()()()()()()()()()()()()()()()

                                              &GATEWAY

                                   only a single process is used
                       available to each process: 2.0 GB of memory, 1 thread
                                            pid: 171779
()()()()()()()()()()()()()()()()()()()()()()()()()()()()()()()()()()()()()()()()()()()()()()()()()()

      Found SYMMETRY generators: xz z

++    Symmetry information:
      ---------------------

                    --- Group Generators ---
                    Rotation around the y-axis  
                    Reflection in the xy-plane  

                    Character Table for C2v

                             E   C2(y) s(xy) s(yz)
                    a1       1     1     1     1  y
                    b1       1    -1     1    -1  x, xy, Rz
                    a2       1     1    -1    -1  xz, Ry, I
                    b2       1    -1    -1     1  z, yz, Rx
--


++    Basis set information:
      ----------------------


      Basis set label: H.CC-PVTZ.........

      Electronic valence basis set:
      ------------------
      Associated Effective Charge   1.000000 au
      Associated Actual Charge      1.000000 au
      Nuclear Model: Point charge

      Shell  nPrim  nBasis  Cartesian Spherical Contaminant
         s       5       3        X                  
         p       2       2        X                  
         d       1       1                 X         


      Basis set label: O.CC-PVTZ.........

      Electronic valence basis set:
      ------------------
      Associated Effective Charge   8.000000 au
      Associated Actual Charge      8.000000 au
      Nuclear Model: Point charge

      Shell  nPrim  nBasis  Cartesian Spherical Contaminant
         s      10       4        X                  
         p       5       3        X                  
         d       2       2                 X         
         f       1       1                 X         
--


++    Molecular structure info:
      -------------------------

                    ************************************************ 
                    **** Cartesian Coordinates / Bohr, Angstrom **** 
                    ************************************************ 

     Center  Label                x              y              z                     x              y              z
        1      H1               1.636503       0.944863       0.000000              0.866000       0.500000       0.000000
        2      H1              -1.636503       0.944863       0.000000             -0.866000       0.500000       0.000000
        3      O2               0.000000       0.000000       0.000000              0.000000       0.000000       0.000000

                    *************************************** 
                    *    InterNuclear Distances / Bohr    * 
                    *************************************** 

               1 H1            2 H1            3 O2    
    1 H1       0.000000
    2 H1       3.273006        0.000000
    3 O2       1.889685        1.889685        0.000000

                    ******************************************* 
                    *    InterNuclear Distances / Angstrom    * 
                    ******************************************* 

               1 H1            2 H1            3 O2    
    1 H1       0.000000
    2 H1       1.732000        0.000000
    3 O2       0.999978        0.999978        0.000000

                    ************************************** 
                    *    Valence Bond Angles / Degree    * 
                    ************************************** 
                          Atom centers                 Phi
                      1 H1       3 O2       2 H1       120.00
--


            Nuclear Potential Energy              8.77255122 au

--- Stop Module: gateway at Wed Apr 24 12:23:48 2024 /rc=_RC_ALL_IS_WELL_ ---
*** files: xmldump
    saved to directory /home/kenya/molcas_test/0423

--- Start Module: seward at Wed Apr 24 12:23:48 2024 ---

()()()()()()()()()()()()()()()()()()()()()()()()()()()()()()()()()()()()()()()()()()()()()()()()()()

                                              &SEWARD

                                   only a single process is used
                       available to each process: 2.0 GB of memory, 1 thread
                                            pid: 171782
()()()()()()()()()()()()()()()()()()()()()()()()()()()()()()()()()()()()()()()()()()()()()()()()()()

               SEWARD will generate:
                  Multipole Moment integrals up to order  2
                  Kinetic Energy integrals
                  Nuclear Attraction integrals (point charge)
                  One-Electron Hamiltonian integrals
                  Velocity integrals
                  Orbital angular momentum around ( 0.0000  0.1057  0.0000 )
                  Velocity quadrupole around ( 0.0000  0.1057  0.0000 )
                  Two-Electron Repulsion integrals

                   Integrals are discarded if absolute value <: 1.00E-14
                   Integral cutoff threshold is set to       <: 1.00E-16

                    Unitary symmetry adaptation


            Nuclear Potential Energy              8.77255122 au


      Basis set specifications :
      Symmetry species         a1   b1   a2   b2 
      Basis functions           23   17    7   11


      Input file to MOLDEN was generated!

--- Stop Module: seward at Wed Apr 24 12:23:49 2024 /rc=_RC_ALL_IS_WELL_ ---
*** files: h2o_PVTZ.GssOrb h2o_PVTZ.guessorb.molden xmldump
    saved to directory /home/kenya/molcas_test/0423

*** symbolic link created: INPORB -> h2o_PVTZ.GssOrb
--- Start Module: scf at Wed Apr 24 12:23:49 2024 ---

()()()()()()()()()()()()()()()()()()()()()()()()()()()()()()()()()()()()()()()()()()()()()()()()()()

                                                &SCF

                                   only a single process is used
                       available to each process: 2.0 GB of memory, 1 thread
                                            pid: 171790
()()()()()()()()()()()()()()()()()()()()()()()()()()()()()()()()()()()()()()()()()()()()()()()()()()

++    Input section:
      --------------

      Header of the integral files:
      
       Integrals generated by Gateway/Seward, Wed Apr 24 12:23:49 2024


      Cartesian coordinates in Angstrom:
      -----------------------------------------------------
      No.  Label        X            Y            Z        
      -----------------------------------------------------
       1   H1         0.86600000   0.50000000   0.00000000
       2   O2         0.00000000   0.00000000   0.00000000
       3   H1        -0.86600000   0.50000000   0.00000000
      -----------------------------------------------------
      Nuclear repulsion energy =    8.77255122
--

++    Orbital specifications:
      -----------------------

      Symmetry species               1   2   3   4
                                    a1  b1  a2  b2
      Frozen orbitals                0   0   0   0
      Occupied orbitals              3   1   0   1
      Secondary orbitals            20  16   7  10
      Deleted orbitals               0   0   0   0
      Total number of orbitals      23  17   7  11
      Number of basis functions     23  17   7  11
--

      Molecular charge                           0.000

++    Optimization specifications:
      ----------------------------

      SCF Algorithm: Conventional
      Minimized density differences are used
      Number of density matrices in core                 5
      Maximum number of NDDO SCF iterations            400
      Maximum number of HF SCF iterations              400
      Threshold for SCF energy change             1.00E-09
      Threshold for density matrix                1.00E-04
      Threshold for Fock matrix                   1.50E-04
      Threshold for linear dependence             1.00E-09
      Threshold at which DIIS is turned on        1.50E-01
      Maximum depth in the DIIS procedure                5
      Maximum depth in the BFGS Hessian update          30
      Threshold at which QNR/C2DIIS is turned on  7.50E-02
      Threshold for Norm(delta) (QNR/C2DIIS)      1.00E-03
      All orbitals punched on: SCFORB
--

      Input vectors read from INPORB
      Orbital file label: *Guess orbitals


++ Convergence information
                                   SCF        iterations: Energy and convergence statistics

Iter     Tot. SCF        One-elec.       Two-elec.     Energy      Max Dij or  Max Fij      DNorm      TNorm      AccCon     Time
         Energy          Energy          Energy        Change      Delta Norm                                                in Sec.
   1   -75.908894588  -122.419464337    37.738018531   0.00E+00    1.86E-01*   1.23E-01*    4.53E+00   5.75E+01   None         0.
   2   -76.038200794  -122.118167157    37.307415145  -1.29E-01*   4.50E-02*   3.34E-02*    1.78E+00   5.75E+01   EDIIS        0.
   3   -76.043791416  -122.580404088    37.764061454  -5.59E-03*   2.46E-02*   1.60E-02*    2.31E-01   5.77E+01   c2DIIS       0.
   4   -76.044619017  -122.323221921    37.506051686  -8.28E-04*   9.37E-03*   5.69E-03*    8.45E-02   5.76E+01   QNRc2DIIS    0.
   5   -76.044758895  -122.461862383    37.644552270  -1.40E-04*   3.38E-03*   4.66E-03*    2.05E-02   5.77E+01   QNRc2DIIS    0.
   6   -76.044819713  -122.411250469    37.593879538  -6.08E-05*   1.04E-03*   6.97E-04*    2.32E-03   5.77E+01   QNRc2DIIS    0.
   7   -76.044821731  -122.408656399    37.591283449  -2.02E-06*   1.28E-04    4.37E-05     3.97E-04   5.77E+01   QNRc2DIIS    0.
   8   -76.044821760  -122.408742006    37.591369028  -2.89E-08*   9.45E-06    4.27E-06     1.31E-04   5.77E+01   QNRc2DIIS    0.
   9   -76.044821760  -122.408735423    37.591362445  -1.67E-10    7.48E-07    4.88E-07     3.03E-05   5.77E+01   QNRc2DIIS    0.

       Convergence after   9 Macro Iterations
--

 *****************************************************************************************************************************
 *                                                                                                                           *
 *                                             SCF/KS-DFT Program, Final results                                             *
 *                                                                                                                           *
 *                                                                                                                           *
 *                                                                                                                           *
 *                                                       Final Results                                                       *
 *                                                                                                                           *
 *****************************************************************************************************************************

::    Total SCF energy                                -76.0448217597
      One-electron energy                            -122.4087354231
      Two-electron energy                              37.5913624449
      Nuclear repulsion energy                          8.7725512185
      Kinetic energy (interpolated)                    75.8219574436
      Virial theorem                                    1.0029393110
      Total spin, S(S+1)                                0.0000000000
      Total spin, S                                     0.0000000000
      Max non-diagonal density matrix element           0.0000010541
      Max non-diagonal Fock matrix element              0.0000001126


      All orbitals with orbital energies smaller than  E(LUMO)+0.5 are printed

++    Molecular orbitals:
      -------------------

      Title: SCF orbitals

      Molecular orbitals for symmetry species 1: a1 

          Orbital            1         2         3         4         5    
          Energy          -20.5527   -1.3142   -0.5402    0.1380    0.5215
          Occ. No.          2.0000    2.0000    2.0000    0.0000    0.0000

        1 H1     1s         0.0025    0.4822    0.4587   -0.2277   -0.6355
        2 H1     *s         0.0007   -0.1454   -0.0614   -0.2864   -1.1880
        3 H1     *s        -0.0013   -0.1745   -0.1307   -1.1954    1.1533
        4 H1     *px       -0.0004   -0.0147   -0.0116   -0.0070    0.0423
        5 H1     *px       -0.0010   -0.0144   -0.0220    0.2198   -0.3734
        6 H1     *py       -0.0003   -0.0077    0.0040    0.0025    0.0142
        7 H1     *py       -0.0005   -0.0042    0.0236    0.1131    0.0952
        8 H1     *d2-       0.0000    0.0020   -0.0012   -0.0238   -0.0151
        9 H1     *d0       -0.0000   -0.0011   -0.0014    0.0163    0.0079
       10 H1     *d2+       0.0001    0.0015    0.0049   -0.0104    0.0140
       11 O2     1s         0.9992   -0.0076   -0.0008   -0.0349    0.0152
       12 O2     2s        -0.0015    0.8777   -0.2544    0.1847    0.2832
       13 O2     *s         0.0010   -0.0071   -0.0050    0.0096   -0.0171
       14 O2     *s        -0.0012   -0.0301   -0.1273    1.4302    0.0526
       15 O2     2py        0.0045    0.0825    0.8286    0.2087    0.2269
       16 O2     *py       -0.0037    0.0089   -0.0098    0.0730   -0.0121
       17 O2     *py       -0.0017   -0.0177    0.0374    0.3415    0.1943
       18 O2     *d0       -0.0000   -0.0033   -0.0049    0.0028    0.0117
       19 O2     *d0        0.0006   -0.0080   -0.0146   -0.0508    0.0003
       20 O2     *d2+       0.0000    0.0024   -0.0015   -0.0032   -0.0202
       21 O2     *d2+      -0.0005    0.0060   -0.0099    0.0344    0.0319
       22 O2     *f3-      -0.0002    0.0029    0.0030    0.0104    0.0123
       23 O2     *f1-       0.0001   -0.0013   -0.0027   -0.0044   -0.0028

      Molecular orbitals for symmetry species 2: b1 

          Orbital            1         2         3    
          Energy           -0.7108    0.1974    0.5587
          Occ. No.          2.0000    0.0000    0.0000

        1 H1     1s         0.8315   -0.0962   -0.4816
        2 H1     *s        -0.1163   -0.1495   -1.8451
        3 H1     *s        -0.2343   -2.2317    1.0601
        4 H1     *px       -0.0145   -0.0176    0.0521
        5 H1     *px       -0.0302    0.1844    0.0676
        6 H1     *py       -0.0135   -0.0176    0.0306
        7 H1     *py       -0.0265    0.1385   -0.1773
        8 H1     *d2-       0.0065   -0.0121   -0.0255
        9 H1     *d0       -0.0043    0.0085    0.0109
       10 H1     *d2+       0.0016   -0.0098   -0.0290
       11 O2     2px        0.7090    0.3587    0.3166
       12 O2     *px       -0.0104    0.0284    0.1076
       13 O2     *px       -0.0835    0.7768    1.0597
       14 O2     *d2-       0.0115   -0.0032   -0.0280
       15 O2     *d2-       0.0225    0.0570    0.1095
       16 O2     *f1+      -0.0038   -0.0038   -0.0171
       17 O2     *f3+       0.0015    0.0019   -0.0025

      Molecular orbitals for symmetry species 4: b2 

          Orbital            1    
          Energy           -0.4951
          Occ. No.          2.0000

        1 H1     *pz        0.0132
        2 H1     *pz        0.0414
        3 H1     *d1-      -0.0035
        4 H1     *d1+      -0.0060
        5 O2     2pz        0.9223
        6 O2     *pz       -0.0092
        7 O2     *pz        0.0723
        8 O2     *d1-       0.0044
        9 O2     *d1-       0.0163
       10 O2     *f0       -0.0040
       11 O2     *f2+       0.0022
--


++    Molecular charges:
      ------------------

      Mulliken charges per centre and basis function type
      ---------------------------------------------------

                H1      O2    
      1s       1.1137  1.9984
      2s       0.0000  1.8044
      2px      0.0000  1.3338
      2pz      0.0000  1.8373
      2py      0.0000  1.6140
      *s      -0.4729 -0.0313
      *px      0.0217 -0.1559
      *pz      0.0301  0.0958
      *py      0.0244  0.0392
      *d2+     0.0015  0.0002
      *d1+     0.0020  0.0000
      *d0      0.0005  0.0040
      *d1-     0.0007  0.0014
      *d2-     0.0018  0.0109
      *f3+     0.0000  0.0000
      *f2+     0.0000  0.0000
      *f1+     0.0000  0.0004
      *f0      0.0000  0.0001
      *f1-     0.0000  0.0001
      *f2-     0.0000  0.0000
      *f3-     0.0000  0.0005
      Total    0.7234  8.5532

      N-E      0.2766 -0.5532

      Total electronic charge=   10.000000

      Total            charge=   -0.000000
--


++    Molecular properties:
      ---------------------

      Charge (e):
                      =   -0.0000
      Dipole Moment (Debye):
      Origin of the operator (Ang)=    0.0000    0.0000    0.0000
                   X=  0.0000E+00               Y=  1.7807E+00               Z=  0.0000E+00           Total=  1.7807E+00
      Quadrupole Moment (Debye*Ang):
      Origin of the operator (Ang)=    0.0000    0.0560    0.0000
                  XX= -3.3265E+00              XY=  0.0000E+00              XZ=  0.0000E+00              YY= -6.3697E+00
                  YZ=  0.0000E+00              ZZ= -7.4103E+00
      In traceless form (Debye*Ang)
                  XX=  3.5635E+00              XY=  0.0000E+00              XZ=  0.0000E+00              YY= -1.0013E+00
                  YZ=  0.0000E+00              ZZ= -2.5621E+00
--


      Input file to MOLDEN was generated!

 ###############################################################################
 ###############################################################################
 ###                                                                         ###
 ###                                                                         ###
 ###    WARNING: RunFile label nBas                                          ###
 ###    was used       60 times                                              ###
 ###                                                                         ###
 ###                                                                         ###
 ###############################################################################
 ###############################################################################
--- Stop Module: scf at Wed Apr 24 12:23:49 2024 /rc=_RC_ALL_IS_WELL_ ---
*** files: h2o_PVTZ.scf.molden h2o_PVTZ.ScfOrb xmldump
    saved to directory /home/kenya/molcas_test/0423

.##################.
.# Happy landing! #.
.##################.

    Timing: Wall=0.98 User=0.80 System=0.12
