[Molden Format]
[N_Atoms]
                    2
[Atoms] (AU)
H1          1      1           1.88972612      0.00000000      0.00000000
O2          2      8           0.00000000      0.00000000      0.00000000
[5D]
[Charge] (Mulliken)
   0.0000000000000000     
   0.0000000000000000     
[GTO] (AU)
   1
   s   4
  1.301000000E+01  1.968498999E-02
  1.962000000E+00  1.379769298E-01
  4.446000000E-01  4.781477569E-01
  1.220000000E-01  5.012397451E-01
   s   1
  1.220000000E-01  1.000000000E+00
   p   1
  7.270000000E-01  1.000000000E+00
 
   2
   s   9
  1.172000000E+04  7.100002503E-04
  1.759000000E+03  5.470001928E-03
  4.008000000E+02  2.783700981E-02
  1.137000000E+02  1.048000369E-01
  3.703000000E+01  2.830620998E-01
  1.327000000E+01  4.487191582E-01
  5.025000000E+00  2.709520955E-01
  1.013000000E+00  1.545800545E-02
  3.023000000E-01 -2.585000911E-03
   s   9
  1.172000000E+04 -1.600000154E-04
  1.759000000E+03 -1.263000121E-03
  4.008000000E+02 -6.267000602E-03
  1.137000000E+02 -2.571600247E-02
  3.703000000E+01 -7.092400682E-02
  1.327000000E+01 -1.654110159E-01
  5.025000000E+00 -1.169550112E-01
  1.013000000E+00  5.573680536E-01
  3.023000000E-01  5.727590551E-01
   s   1
  3.023000000E-01  1.000000000E+00
   p   4
  1.770000000E+01  4.301799242E-02
  3.854000000E+00  2.289129597E-01
  1.046000000E+00  5.087279104E-01
  2.753000000E-01  4.605309189E-01
   p   1
  2.753000000E-01  1.000000000E+00
   d   1
  1.185000000E+00  1.000000000E+00
 
[MO]
Sym=     1a1 
Ene=   -20.6860
Spin= Alpha
Occup=    2.00000
   1         0.00165851
   2        -0.00024086
   3         0.00000000
   4         0.00000000
   5         0.00000000
   6         0.99933237
   7        -0.00291631
   8         0.00303204
   9         0.00001901
  10         0.00000000
  11         0.00000000
  12         0.00000036
  13         0.00000000
  14         0.00000000
  15        -0.00000000
  16         0.00000000
  17         0.00000000
  18        -0.00000000
  19         0.00000000
Sym=     2a1 
Ene=    -1.4182
Spin= Alpha
Occup=    2.00000
   1         0.27717556
   2        -0.04025310
   3         0.00000000
   4         0.00000000
   5         0.00000000
   6        -0.01787161
   7         0.83482916
   8         0.01487437
   9         0.08123889
  10         0.00000000
  11         0.00000000
  12         0.00151817
  13         0.00000000
  14         0.00000000
  15        -0.00000000
  16         0.00000000
  17         0.00000000
  18         0.00000000
  19         0.00000000
Sym=     3a1 
Ene=    -0.7406
Spin= Alpha
Occup=    2.00000
   1         0.36897808
   2        -0.05358521
   3         0.00000000
   4         0.00000000
   5         0.00000000
   6        -0.01819525
   7        -0.37601227
   8        -0.00678051
   9         0.79452223
  10         0.00000000
  11         0.00000000
  12         0.01484786
  13         0.00000000
  14         0.00000000
  15         0.00000000
  16         0.00000000
  17         0.00000000
  18        -0.00000000
  19         0.00000000
Sym=     4a1 
Ene=    -0.2197
Spin= Alpha
Occup=    0.00000
   1        -1.42900345
   2         0.20752846
   3         0.00000000
   4         0.00000000
   5         0.00000000
   6         0.07099099
   7         0.71764485
   8         0.01305297
   9         0.79325796
  10         0.00000000
  11         0.00000000
  12         0.01482423
  13         0.00000000
  14         0.00000000
  15        -0.00000000
  16         0.00000000
  17         0.00000000
  18         0.00000000
  19         0.00000000
Sym=     5a1 
Ene=     3.9600
Spin= Alpha
Occup=    0.00000
   1         1.27005516
   2        -2.32421799
   3         0.47804958
   4         0.00000000
   5         0.00000000
   6        -0.13673820
   7        -0.47427330
   8         1.34614433
   9        -0.08074803
  10         0.00000000
  11         0.00000000
  12         0.40538185
  13         0.00000000
  14         0.00000000
  15        -0.05758996
  16         0.00000000
  17         0.00000000
  18         0.09974873
  19         0.00000000
Sym=     6a1 
Ene=     5.2332
Spin= Alpha
Occup=    0.00000
   1        -2.35882611
   2         0.72967972
   3         0.98878076
   4         0.00000000
   5         0.00000000
   6        -0.18688134
   7        -0.62685940
   8         1.94989559
   9        -0.40348895
  10         0.00000000
  11         0.00000000
  12         1.84506091
  13         0.00000000
  14         0.00000000
  15        -0.03028504
  16         0.00000000
  17         0.00000000
  18         0.05245523
  19         0.00000000
Sym=     7a1 
Ene=     6.9138
Spin= Alpha
Occup=    0.00000
   1        -0.15509584
   2        -0.20215828
   3         0.40240616
   4         0.00000000
   5         0.00000000
   6        -0.44934424
   7        -2.13307935
   8         2.65435750
   9         0.92564319
  10         0.00000000
  11         0.00000000
  12        -0.83527951
  13         0.00000000
  14         0.00000000
  15         0.14912728
  16         0.00000000
  17         0.00000000
  18        -0.25829603
  19         0.00000000
Sym=     8a1 
Ene=     7.0441
Spin= Alpha
Occup=    0.00000
   1        -0.61220131
   2        -0.00345199
   3        -0.64463153
   4         0.00000000
   5         0.00000000
   6        -0.53907552
   7        -2.46672701
   8         2.68207290
   9        -0.74572002
  10         0.00000000
  11         0.00000000
  12         0.96546063
  13         0.00000000
  14         0.00000000
  15        -0.13355534
  16         0.00000000
  17         0.00000000
  18         0.23132463
  19         0.00000000
Sym=     9a1 
Ene=     7.1475
Spin= Alpha
Occup=    0.00000
   1        -0.00000000
   2        -0.00000000
   3        -0.00000000
   4         0.00000000
   5         0.00000000
   6        -0.00000000
   7        -0.00000000
   8         0.00000000
   9        -0.00000000
  10         0.00000000
  11         0.00000000
  12         0.00000000
  13         0.00000000
  14         0.00000000
  15         0.86602540
  16         0.00000000
  17         0.00000000
  18         0.50000000
  19         0.00000000
Sym=    10a1 
Ene=     8.5489
Spin= Alpha
Occup=    0.00000
   1        -2.11485539
   2         0.91077187
   3         1.10324554
   4         0.00000000
   5         0.00000000
   6        -0.09732057
   7        -0.28285136
   8         1.40107838
   9         0.80639656
  10         0.00000000
  11         0.00000000
  12         0.21936369
  13         0.00000000
  14         0.00000000
  15        -0.59208694
  16         0.00000000
  17         0.00000000
  18         1.02552467
  19         0.00000000
Sym=     1b2 
Ene=    -0.6338
Spin= Alpha
Occup=    1.50000
   1         0.00000000
   2         0.00000000
   3         0.00000000
   4         0.00000000
   5         0.00000000
   6         0.00000000
   7         0.00000000
   8         0.00000000
   9         0.00000000
  10         0.98512832
  11         0.00000000
  12         0.00000000
  13         0.01840986
  14         0.00000000
  15         0.00000000
  16         0.00000000
  17         0.00000000
  18         0.00000000
  19        -0.00000000
Sym=     2b2 
Ene=     4.9828
Spin= Alpha
Occup=    0.00000
   1         0.00000000
   2         0.00000000
   3         0.00000000
   4         1.06190820
   5         0.00000000
   6         0.00000000
   7         0.00000000
   8         0.00000000
   9         0.00000000
  10         0.04016886
  11         0.00000000
  12         0.00000000
  13        -0.42939475
  14         0.00000000
  15         0.00000000
  16         0.00000000
  17         0.00000000
  18         0.00000000
  19         0.03974738
Sym=     3b2 
Ene=     6.4615
Spin= Alpha
Occup=    0.00000
   1         0.00000000
   2         0.00000000
   3         0.00000000
   4         0.00747312
   5         0.00000000
   6         0.00000000
   7         0.00000000
   8         0.00000000
   9         0.00000000
  10        -1.36537361
  11         0.00000000
  12         0.00000000
  13         1.68077653
  14         0.00000000
  15         0.00000000
  16         0.00000000
  17         0.00000000
  18         0.00000000
  19         0.00556529
Sym=     4b2 
Ene=     7.4467
Spin= Alpha
Occup=    0.00000
   1         0.00000000
   2         0.00000000
   3         0.00000000
   4        -0.39484893
   5         0.00000000
   6         0.00000000
   7         0.00000000
   8         0.00000000
   9         0.00000000
  10        -0.00366178
  11         0.00000000
  12         0.00000000
  13         0.14576107
  14         0.00000000
  15         0.00000000
  16         0.00000000
  17         0.00000000
  18         0.00000000
  19         1.05208021
Sym=     1a2 
Ene=     7.1475
Spin= Alpha
Occup=    0.00000
   1         0.00000000
   2         0.00000000
   3         0.00000000
   4         0.00000000
   5         0.00000000
   6         0.00000000
   7         0.00000000
   8         0.00000000
   9         0.00000000
  10         0.00000000
  11         0.00000000
  12         0.00000000
  13         0.00000000
  14         0.00000000
  15         0.00000000
  16         0.00000000
  17         1.00000000
  18         0.00000000
  19         0.00000000
Sym=     1b1 
Ene=    -0.6338
Spin= Alpha
Occup=    1.50000
   1         0.00000000
   2         0.00000000
   3         0.00000000
   4         0.00000000
   5         0.00000000
   6         0.00000000
   7         0.00000000
   8         0.00000000
   9         0.00000000
  10         0.00000000
  11         0.98512832
  12         0.00000000
  13         0.00000000
  14         0.01840986
  15         0.00000000
  16        -0.00000000
  17         0.00000000
  18         0.00000000
  19         0.00000000
Sym=     2b1 
Ene=     4.9828
Spin= Alpha
Occup=    0.00000
   1         0.00000000
   2         0.00000000
   3         0.00000000
   4         0.00000000
   5         1.06190820
   6         0.00000000
   7         0.00000000
   8         0.00000000
   9         0.00000000
  10         0.00000000
  11         0.04016886
  12         0.00000000
  13         0.00000000
  14        -0.42939475
  15         0.00000000
  16         0.03974738
  17         0.00000000
  18         0.00000000
  19         0.00000000
Sym=     3b1 
Ene=     6.4615
Spin= Alpha
Occup=    0.00000
   1         0.00000000
   2         0.00000000
   3         0.00000000
   4         0.00000000
   5         0.00747312
   6         0.00000000
   7         0.00000000
   8         0.00000000
   9         0.00000000
  10         0.00000000
  11        -1.36537361
  12         0.00000000
  13         0.00000000
  14         1.68077653
  15         0.00000000
  16         0.00556529
  17         0.00000000
  18         0.00000000
  19         0.00000000
Sym=     4b1 
Ene=     7.4467
Spin= Alpha
Occup=    0.00000
   1         0.00000000
   2         0.00000000
   3         0.00000000
   4         0.00000000
   5        -0.39484893
   6         0.00000000
   7         0.00000000
   8         0.00000000
   9         0.00000000
  10         0.00000000
  11        -0.00366178
  12         0.00000000
  13         0.00000000
  14         0.14576107
  15         0.00000000
  16         1.05208021
  17         0.00000000
  18         0.00000000
  19         0.00000000
