[Molden Format]
[N_Atoms]
                    2
[Atoms] (AU)
H1          1      1           1.88972612      0.00000000      0.00000000
O2          2      8           0.00000000      0.00000000      0.00000000
[5D]
[Charge] (Mulliken)
  -1.5378337733421565E-002
 -0.98462166226663861     
[GTO] (AU)
   1
   s   4
  1.301000000E+01  1.968498999E-02
  1.962000000E+00  1.379769298E-01
  4.446000000E-01  4.781477569E-01
  1.220000000E-01  5.012397451E-01
   s   1
  1.220000000E-01  1.000000000E+00
   p   1
  7.270000000E-01  1.000000000E+00
 
   2
   s   9
  1.172000000E+04  7.100002503E-04
  1.759000000E+03  5.470001928E-03
  4.008000000E+02  2.783700981E-02
  1.137000000E+02  1.048000369E-01
  3.703000000E+01  2.830620998E-01
  1.327000000E+01  4.487191582E-01
  5.025000000E+00  2.709520955E-01
  1.013000000E+00  1.545800545E-02
  3.023000000E-01 -2.585000911E-03
   s   9
  1.172000000E+04 -1.600000154E-04
  1.759000000E+03 -1.263000121E-03
  4.008000000E+02 -6.267000602E-03
  1.137000000E+02 -2.571600247E-02
  3.703000000E+01 -7.092400682E-02
  1.327000000E+01 -1.654110159E-01
  5.025000000E+00 -1.169550112E-01
  1.013000000E+00  5.573680536E-01
  3.023000000E-01  5.727590551E-01
   s   1
  3.023000000E-01  1.000000000E+00
   p   4
  1.770000000E+01  4.301799242E-02
  3.854000000E+00  2.289129597E-01
  1.046000000E+00  5.087279104E-01
  2.753000000E-01  4.605309189E-01
   p   1
  2.753000000E-01  1.000000000E+00
   d   1
  1.185000000E+00  1.000000000E+00
 
[MO]
Sym=     1a1 
Ene=   -20.0790
Spin= Alpha
Occup=    2.00000
   1        -0.00023927
   2         0.00084895
   3         0.00065929
   4         0.00000000
   5         0.00000000
   6         1.00015784
   7         0.00098576
   8        -0.00071782
   9         0.00205003
  10         0.00000000
  11         0.00000000
  12        -0.00149492
  13         0.00000000
  14         0.00000000
  15        -0.00001169
  16         0.00000000
  17         0.00000000
  18         0.00002025
  19         0.00000000
Sym=     2a1 
Ene=    -0.8071
Spin= Alpha
Occup=    2.00000
   1         0.33902930
   2        -0.11416348
   3        -0.03599833
   4         0.00000000
   5         0.00000000
   6        -0.01734470
   7         0.84789865
   8         0.00297719
   9         0.08570901
  10         0.00000000
  11         0.00000000
  12        -0.05224565
  13         0.00000000
  14         0.00000000
  15        -0.00205476
  16         0.00000000
  17         0.00000000
  18         0.00355895
  19         0.00000000
Sym=     3a1 
Ene=    -0.1570
Spin= Alpha
Occup=    2.00000
   1         0.66712726
   2        -0.12623996
   3        -0.02611046
   4         0.00000000
   5         0.00000000
   6         0.01571093
   7        -0.23906910
   8        -0.26367025
   9         0.64740357
  10         0.00000000
  11         0.00000000
  12         0.00588561
  13         0.00000000
  14         0.00000000
  15        -0.01020482
  16         0.00000000
  17         0.00000000
  18         0.01767527
  19         0.00000000
Sym=     4a1 
Ene=     0.5061
Spin= Alpha
Occup=    0.00000
   1         0.07876378
   2        -1.51064087
   3         0.06105129
   4         0.00000000
   5         0.00000000
   6        -0.05991998
   7         0.03419549
   8         0.83596393
   9         0.34931786
  10         0.00000000
  11         0.00000000
  12         0.37483060
  13         0.00000000
  14         0.00000000
  15        -0.01347298
  16         0.00000000
  17         0.00000000
  18         0.02333589
  19         0.00000000
Sym=     5a1 
Ene=     1.1800
Spin= Alpha
Occup=    0.00000
   1        -2.17229978
   2         1.87423994
   3        -0.29641627
   4         0.00000000
   5         0.00000000
   6         0.03213220
   7         0.29708531
   8        -0.27623034
   9         0.50810850
  10         0.00000000
  11         0.00000000
  12         0.09342565
  13         0.00000000
  14         0.00000000
  15         0.05170099
  16         0.00000000
  17         0.00000000
  18        -0.08954874
  19         0.00000000
Sym=     6a1 
Ene=     1.5890
Spin= Alpha
Occup=    0.00000
   1        -1.26511065
   2         0.34105996
   3         0.41349738
   4         0.00000000
   5         0.00000000
   6         0.05142788
   7         0.44087229
   8         0.21824562
   9        -1.10115331
  10         0.00000000
  11         0.00000000
  12         1.98907146
  13         0.00000000
  14         0.00000000
  15        -0.00600178
  16         0.00000000
  17         0.00000000
  18         0.01039538
  19         0.00000000
Sym=     7a1 
Ene=     2.1079
Spin= Alpha
Occup=    0.00000
   1        -0.97096199
   2        -0.19338242
   3         0.34887388
   4         0.00000000
   5         0.00000000
   6        -0.71530700
   7        -3.28197472
   8         4.27027511
   9         0.01651732
  10         0.00000000
  11         0.00000000
  12         0.69158829
  13         0.00000000
  14         0.00000000
  15         0.02630266
  16         0.00000000
  17         0.00000000
  18        -0.04555754
  19         0.00000000
Sym=     8a1 
Ene=     2.7727
Spin= Alpha
Occup=    0.00000
   1        -0.80849788
   2         0.12214683
   3         1.25095695
   4         0.00000000
   5         0.00000000
   6         0.14928949
   7         0.83740046
   8         0.04575918
   9         1.10470970
  10         0.00000000
  11         0.00000000
  12        -0.39081201
  13         0.00000000
  14         0.00000000
  15         0.06539906
  16         0.00000000
  17         0.00000000
  18        -0.11327449
  19         0.00000000
Sym=     9a1 
Ene=     3.4416
Spin= Alpha
Occup=    0.00000
   1         0.00000000
   2        -0.00000000
   3         0.00000000
   4         0.00000000
   5         0.00000000
   6         0.00000000
   7        -0.00000000
   8         0.00000000
   9         0.00000000
  10         0.00000000
  11         0.00000000
  12        -0.00000000
  13         0.00000000
  14         0.00000000
  15         0.86602540
  16         0.00000000
  17         0.00000000
  18         0.50000000
  19         0.00000000
Sym=    10a1 
Ene=     4.4376
Spin= Alpha
Occup=    0.00000
   1         2.41278950
   2        -0.92733306
   3        -1.02454660
   4         0.00000000
   5         0.00000000
   6         0.13371141
   7         0.39182632
   8        -1.63925249
   9        -0.50966888
  10         0.00000000
  11         0.00000000
  12        -0.71240912
  13         0.00000000
  14         0.00000000
  15         0.62202006
  16         0.00000000
  17         0.00000000
  18        -1.07737034
  19         0.00000000
Sym=     1b2 
Ene=    -0.0308
Spin= Alpha
Occup=    2.00000
   1         0.00000000
   2         0.00000000
   3         0.00000000
   4         0.03104848
   5         0.00000000
   6         0.00000000
   7         0.00000000
   8         0.00000000
   9         0.00000000
  10         0.86057786
  11         0.00000000
  12         0.00000000
  13         0.15526765
  14         0.00000000
  15         0.00000000
  16         0.00000000
  17         0.00000000
  18         0.00000000
  19         0.01280328
Sym=     2b2 
Ene=     1.6245
Spin= Alpha
Occup=    0.00000
   1         0.00000000
   2         0.00000000
   3         0.00000000
   4         0.05806195
   5         0.00000000
   6         0.00000000
   7         0.00000000
   8         0.00000000
   9         0.00000000
  10        -1.44542171
  11         0.00000000
  12         0.00000000
  13         1.65014772
  14         0.00000000
  15         0.00000000
  16         0.00000000
  17         0.00000000
  18         0.00000000
  19        -0.00057943
Sym=     3b2 
Ene=     1.9430
Spin= Alpha
Occup=    0.00000
   1         0.00000000
   2         0.00000000
   3         0.00000000
   4         1.02029299
   5         0.00000000
   6         0.00000000
   7         0.00000000
   8         0.00000000
   9         0.00000000
  10         0.07477031
  11         0.00000000
  12         0.00000000
  13        -0.49321699
  14         0.00000000
  15         0.00000000
  16         0.00000000
  17         0.00000000
  18         0.00000000
  19         0.13350918
Sym=     4b2 
Ene=     3.7311
Spin= Alpha
Occup=    0.00000
   1         0.00000000
   2         0.00000000
   3         0.00000000
   4        -0.48813684
   5         0.00000000
   6         0.00000000
   7         0.00000000
   8         0.00000000
   9         0.00000000
  10        -0.03034935
  11         0.00000000
  12         0.00000000
  13         0.20153479
  14         0.00000000
  15         0.00000000
  16         0.00000000
  17         0.00000000
  18         0.00000000
  19         1.04426751
Sym=     1a2 
Ene=     3.4416
Spin= Alpha
Occup=    0.00000
   1         0.00000000
   2         0.00000000
   3         0.00000000
   4         0.00000000
   5         0.00000000
   6         0.00000000
   7         0.00000000
   8         0.00000000
   9         0.00000000
  10         0.00000000
  11         0.00000000
  12         0.00000000
  13         0.00000000
  14         0.00000000
  15         0.00000000
  16         0.00000000
  17         1.00000000
  18         0.00000000
  19         0.00000000
Sym=     1b1 
Ene=    -0.0308
Spin= Alpha
Occup=    2.00000
   1         0.00000000
   2         0.00000000
   3         0.00000000
   4         0.00000000
   5         0.03104848
   6         0.00000000
   7         0.00000000
   8         0.00000000
   9         0.00000000
  10         0.00000000
  11         0.86057786
  12         0.00000000
  13         0.00000000
  14         0.15526765
  15         0.00000000
  16         0.01280328
  17         0.00000000
  18         0.00000000
  19         0.00000000
Sym=     2b1 
Ene=     1.6245
Spin= Alpha
Occup=    0.00000
   1         0.00000000
   2         0.00000000
   3         0.00000000
   4         0.00000000
   5         0.05806195
   6         0.00000000
   7         0.00000000
   8         0.00000000
   9         0.00000000
  10         0.00000000
  11        -1.44542171
  12         0.00000000
  13         0.00000000
  14         1.65014772
  15         0.00000000
  16        -0.00057943
  17         0.00000000
  18         0.00000000
  19         0.00000000
Sym=     3b1 
Ene=     1.9430
Spin= Alpha
Occup=    0.00000
   1         0.00000000
   2         0.00000000
   3         0.00000000
   4         0.00000000
   5         1.02029299
   6         0.00000000
   7         0.00000000
   8         0.00000000
   9         0.00000000
  10         0.00000000
  11         0.07477031
  12         0.00000000
  13         0.00000000
  14        -0.49321699
  15         0.00000000
  16         0.13350918
  17         0.00000000
  18         0.00000000
  19         0.00000000
Sym=     4b1 
Ene=     3.7311
Spin= Alpha
Occup=    0.00000
   1         0.00000000
   2         0.00000000
   3         0.00000000
   4         0.00000000
   5        -0.48813684
   6         0.00000000
   7         0.00000000
   8         0.00000000
   9         0.00000000
  10         0.00000000
  11        -0.03034935
  12         0.00000000
  13         0.00000000
  14         0.20153479
  15         0.00000000
  16         1.04426751
  17         0.00000000
  18         0.00000000
  19         0.00000000
