[Molden Format]
[N_Atoms]
                    2
[Atoms] (AU)
H1          1      1           1.88972612      0.00000000      0.00000000
O2          2      8           0.00000000      0.00000000      0.00000000
[5D]
[Charge] (Mulliken)
  0.19936026839017473     
 -0.19936026839019938     
[GTO] (AU)
   1
   s   4
  1.301000000E+01  1.968498999E-02
  1.962000000E+00  1.379769298E-01
  4.446000000E-01  4.781477569E-01
  1.220000000E-01  5.012397451E-01
   s   1
  1.220000000E-01  1.000000000E+00
   p   1
  7.270000000E-01  1.000000000E+00
 
   2
   s   9
  1.172000000E+04  7.100002503E-04
  1.759000000E+03  5.470001928E-03
  4.008000000E+02  2.783700981E-02
  1.137000000E+02  1.048000369E-01
  3.703000000E+01  2.830620998E-01
  1.327000000E+01  4.487191582E-01
  5.025000000E+00  2.709520955E-01
  1.013000000E+00  1.545800545E-02
  3.023000000E-01 -2.585000911E-03
   s   9
  1.172000000E+04 -1.600000154E-04
  1.759000000E+03 -1.263000121E-03
  4.008000000E+02 -6.267000602E-03
  1.137000000E+02 -2.571600247E-02
  3.703000000E+01 -7.092400682E-02
  1.327000000E+01 -1.654110159E-01
  5.025000000E+00 -1.169550112E-01
  1.013000000E+00  5.573680536E-01
  3.023000000E-01  5.727590551E-01
   s   1
  3.023000000E-01  1.000000000E+00
   p   4
  1.770000000E+01  4.301799242E-02
  3.854000000E+00  2.289129597E-01
  1.046000000E+00  5.087279104E-01
  2.753000000E-01  4.605309189E-01
   p   1
  2.753000000E-01  1.000000000E+00
   d   1
  1.185000000E+00  1.000000000E+00
 
[MO]
Sym=     1a1 
Ene=   -20.6290
Spin= Alpha
Occup=    1.00000
   1         0.00001659
   2         0.00083051
   3         0.00060444
   4         0.00000000
   5         0.00000000
   6         1.00055911
   7         0.00378385
   8        -0.00291489
   9         0.00211882
  10         0.00000000
  11         0.00000000
  12        -0.00167013
  13         0.00000000
  14         0.00000000
  15        -0.00016958
  16         0.00000000
  17         0.00000000
  18        -0.00023613
  19         0.00000000
Sym=     1a1 
Ene=   -20.5890
Spin= Beta
Occup=    1.00000
   1        -0.00035705
   2         0.00080490
   3         0.00068881
   4         0.00000000
   5         0.00000000
   6         0.99986652
   7        -0.00152131
   8         0.00086335
   9         0.00199730
  10         0.00000000
  11         0.00000000
  12        -0.00138010
  13         0.00000000
  14         0.00000000
  15         0.00043435
  16         0.00000000
  17         0.00000000
  18         0.00086625
  19         0.00000000
Sym=     2a1 
Ene=    -1.3663
Spin= Alpha
Occup=    1.00000
   1         0.29177987
   2        -0.13996256
   3        -0.03916116
   4         0.00000000
   5         0.00000000
   6        -0.00049042
   7         0.95596437
   8        -0.06720711
   9         0.10125651
  10         0.00000000
  11         0.00000000
  12        -0.03970221
  13         0.00000000
  14         0.00000000
  15        -0.01163461
  16         0.00000000
  17         0.00000000
  18        -0.01004465
  19         0.00000000
Sym=     2a1 
Ene=    -1.2087
Spin= Beta
Occup=    1.00000
   1         0.39012691
   2        -0.17231211
   3        -0.04443143
   4         0.00000000
   5         0.00000000
   6        -0.00736482
   7         0.88677557
   8        -0.04400154
   9         0.11263840
  10         0.00000000
  11         0.00000000
  12        -0.05520027
  13         0.00000000
  14         0.00000000
  15         0.00770706
  16         0.00000000
  17         0.00000000
  18         0.02130772
  19         0.00000000
Sym=     3a1 
Ene=    -0.6581
Spin= Alpha
Occup=    1.00000
   1         0.62704302
   2        -0.24043021
   3        -0.04349850
   4         0.00000000
   5         0.00000000
   6         0.00090565
   7        -0.25629358
   8        -0.14264872
   9         0.78196399
  10         0.00000000
  11         0.00000000
  12        -0.05774465
  13         0.00000000
  14         0.00000000
  15        -0.00785988
  16         0.00000000
  17         0.00000000
  18         0.02435426
  19         0.00000000
Sym=     3a1 
Ene=    -0.6156
Spin= Beta
Occup=    1.00000
   1         0.65112275
   2        -0.23835075
   3        -0.03837232
   4         0.00000000
   5         0.00000000
   6         0.00437795
   7        -0.29201008
   8        -0.16889076
   9         0.73810971
  10         0.00000000
  11         0.00000000
  12        -0.03585936
  13         0.00000000
  14         0.00000000
  15        -0.01400187
  16         0.00000000
  17         0.00000000
  18         0.01220484
  19         0.00000000
Sym=     4a1 
Ene=     0.1796
Spin= Alpha
Occup=    0.00000
   1        -0.16187042
   2        -1.29599760
   3         0.02519544
   4         0.00000000
   5         0.00000000
   6        -0.03579909
   7         0.13430577
   8         0.69362154
   9         0.35347919
  10         0.00000000
  11         0.00000000
  12         0.28577051
  13         0.00000000
  14         0.00000000
  15        -0.00935247
  16         0.00000000
  17         0.00000000
  18         0.00819518
  19         0.00000000
Sym=     4a1 
Ene=     0.1921
Spin= Beta
Occup=    0.00000
   1        -0.10803091
   2        -1.34213216
   3         0.02418066
   4         0.00000000
   5         0.00000000
   6        -0.04348086
   7         0.11594069
   8         0.73404986
   9         0.35497875
  10         0.00000000
  11         0.00000000
  12         0.29945590
  13         0.00000000
  14         0.00000000
  15        -0.00620319
  16         0.00000000
  17         0.00000000
  18         0.01549083
  19         0.00000000
Sym=     5a1 
Ene=     0.7685
Spin= Alpha
Occup=    0.00000
   1        -2.18032434
   2         2.00704092
   3        -0.26576100
   4         0.00000000
   5         0.00000000
   6         0.03159141
   7         0.25134955
   8        -0.30209607
   9         0.53622426
  10         0.00000000
  11         0.00000000
  12        -0.04143237
  13         0.00000000
  14         0.00000000
  15         0.05002866
  16         0.00000000
  17         0.00000000
  18        -0.09928177
  19         0.00000000
Sym=     5a1 
Ene=     0.7777
Spin= Beta
Occup=    0.00000
   1        -2.17429347
   2         1.97964817
   3        -0.27440729
   4         0.00000000
   5         0.00000000
   6         0.02781568
   7         0.26211713
   8        -0.27718638
   9         0.53941748
  10         0.00000000
  11         0.00000000
  12        -0.01179860
  13         0.00000000
  14         0.00000000
  15         0.05806008
  16         0.00000000
  17         0.00000000
  18        -0.08680158
  19         0.00000000
Sym=     6a1 
Ene=     1.1553
Spin= Alpha
Occup=    0.00000
   1        -1.27044071
   2         0.36647609
   3         0.35771899
   4         0.00000000
   5         0.00000000
   6         0.06624065
   7         0.49604739
   8         0.10558837
   9        -1.04599526
  10         0.00000000
  11         0.00000000
  12         1.98045475
  13         0.00000000
  14         0.00000000
  15        -0.00261984
  16         0.00000000
  17         0.00000000
  18        -0.01041722
  19         0.00000000
Sym=     6a1 
Ene=     1.1785
Spin= Beta
Occup=    0.00000
   1        -1.28373017
   2         0.35812060
   3         0.37170914
   4         0.00000000
   5         0.00000000
   6         0.05836020
   7         0.47375322
   8         0.16260407
   9        -1.05911504
  10         0.00000000
  11         0.00000000
  12         1.99228222
  13         0.00000000
  14         0.00000000
  15         0.00469398
  16         0.00000000
  17         0.00000000
  18         0.00369930
  19         0.00000000
Sym=     7a1 
Ene=     1.6387
Spin= Alpha
Occup=    0.00000
   1        -0.94073075
   2        -0.25865501
   3         0.32368839
   4         0.00000000
   5         0.00000000
   6        -0.71835571
   7        -3.26529366
   8         4.28941447
   9        -0.03271402
  10         0.00000000
  11         0.00000000
  12         0.74571785
  13         0.00000000
  14         0.00000000
  15         0.02803306
  16         0.00000000
  17         0.00000000
  18        -0.04730023
  19         0.00000000
Sym=     7a1 
Ene=     1.6852
Spin= Beta
Occup=    0.00000
   1        -0.93106472
   2        -0.25515739
   3         0.33990878
   4         0.00000000
   5         0.00000000
   6        -0.71689957
   7        -3.26525190
   8         4.28157388
   9        -0.00932616
  10         0.00000000
  11         0.00000000
  12         0.71642707
  13         0.00000000
  14         0.00000000
  15         0.02836038
  16         0.00000000
  17         0.00000000
  18        -0.05184538
  19         0.00000000
Sym=     8a1 
Ene=     2.3120
Spin= Alpha
Occup=    0.00000
   1        -0.72022187
   2         0.04313014
   3         1.25306413
   4         0.00000000
   5         0.00000000
   6         0.13452273
   7         0.75404355
   8         0.12237672
   9         1.05264063
  10         0.00000000
  11         0.00000000
  12        -0.36300701
  13         0.00000000
  14         0.00000000
  15         0.04754398
  16         0.00000000
  17         0.00000000
  18        -0.15021286
  19         0.00000000
Sym=     8a1 
Ene=     2.3352
Spin= Beta
Occup=    0.00000
   1        -0.75696465
   2         0.07074551
   3         1.25724503
   4         0.00000000
   5         0.00000000
   6         0.14523893
   7         0.82118135
   8         0.07331551
   9         1.07040175
  10         0.00000000
  11         0.00000000
  12        -0.36600671
  13         0.00000000
  14         0.00000000
  15         0.08775012
  16         0.00000000
  17         0.00000000
  18        -0.10941918
  19         0.00000000
Sym=     9a1 
Ene=     2.8779
Spin= Alpha
Occup=    0.00000
   1        -0.11535655
   2         0.03701724
   3         0.07267213
   4         0.00000000
   5         0.00000000
   6         0.00207060
   7         0.03861645
   8         0.04959685
   9         0.04434758
  10         0.00000000
  11         0.00000000
  12         0.02331968
  13         0.00000000
  14         0.00000000
  15         0.85072593
  16         0.00000000
  17         0.00000000
  18         0.52419755
  19         0.00000000
Sym=     9a1 
Ene=     2.9997
Spin= Beta
Occup=    0.00000
   1         0.07143608
   2        -0.02673427
   3        -0.04184571
   4         0.00000000
   5         0.00000000
   6        -0.00307921
   7        -0.03773635
   8        -0.02203367
   9        -0.02624329
  10         0.00000000
  11         0.00000000
  12        -0.01394586
  13         0.00000000
  14         0.00000000
  15         0.87321567
  16         0.00000000
  17         0.00000000
  18         0.48643876
  19         0.00000000
Sym=    10a1 
Ene=     3.9425
Spin= Alpha
Occup=    0.00000
   1        -2.45239243
   2         0.92882147
   3         1.05734207
   4         0.00000000
   5         0.00000000
   6        -0.13430817
   7        -0.38333821
   8         1.67089360
   9         0.51012923
  10         0.00000000
  11         0.00000000
  12         0.74030012
  13         0.00000000
  14         0.00000000
  15        -0.64443886
  16         0.00000000
  17         0.00000000
  18         1.06033920
  19         0.00000000
Sym=    10a1 
Ene=     3.9782
Spin= Beta
Occup=    0.00000
   1        -2.42801522
   2         0.92003409
   3         1.04182394
   4         0.00000000
   5         0.00000000
   6        -0.13797022
   7        -0.41248557
   8         1.67525983
   9         0.50685050
  10         0.00000000
  11         0.00000000
  12         0.73225251
  13         0.00000000
  14         0.00000000
  15        -0.60842386
  16         0.00000000
  17         0.00000000
  18         1.08395345
  19         0.00000000
Sym=     1b2 
Ene=    -0.6377
Spin= Alpha
Occup=    1.00000
   1         0.00000000
   2         0.00000000
   3         0.00000000
   4         0.02483230
   5         0.00000000
   6         0.00000000
   7         0.00000000
   8         0.00000000
   9         0.00000000
  10         0.99334331
  11         0.00000000
  12         0.00000000
  13        -0.00126098
  14         0.00000000
  15         0.00000000
  16         0.00000000
  17         0.00000000
  18         0.00000000
  19         0.01630200
Sym=     1b2 
Ene=     0.1390
Spin= Beta
Occup=    0.00000
   1         0.00000000
   2         0.00000000
   3         0.00000000
   4         0.03998311
   5         0.00000000
   6         0.00000000
   7         0.00000000
   8         0.00000000
   9         0.00000000
  10         0.70722117
  11         0.00000000
  12         0.00000000
  13         0.32305315
  14         0.00000000
  15         0.00000000
  16         0.00000000
  17         0.00000000
  18         0.00000000
  19         0.01236991
Sym=     2b2 
Ene=     1.1008
Spin= Alpha
Occup=    0.00000
   1         0.00000000
   2         0.00000000
   3         0.00000000
   4         0.06203971
   5         0.00000000
   6         0.00000000
   7         0.00000000
   8         0.00000000
   9         0.00000000
  10        -1.35749083
  11         0.00000000
  12         0.00000000
  13         1.65678307
  14         0.00000000
  15         0.00000000
  16         0.00000000
  17         0.00000000
  18         0.00000000
  19         0.00147047
Sym=     2b2 
Ene=     1.3042
Spin= Beta
Occup=    0.00000
   1         0.00000000
   2         0.00000000
   3         0.00000000
   4         0.07771058
   5         0.00000000
   6         0.00000000
   7         0.00000000
   8         0.00000000
   9         0.00000000
  10        -1.52437866
  11         0.00000000
  12         0.00000000
  13         1.61370059
  14         0.00000000
  15         0.00000000
  16         0.00000000
  17         0.00000000
  18         0.00000000
  19         0.00133349
Sym=     3b2 
Ene=     1.5111
Spin= Alpha
Occup=    0.00000
   1         0.00000000
   2         0.00000000
   3         0.00000000
   4         1.00613404
   5         0.00000000
   6         0.00000000
   7         0.00000000
   8         0.00000000
   9         0.00000000
  10         0.07498746
  11         0.00000000
  12         0.00000000
  13        -0.49001211
  14         0.00000000
  15         0.00000000
  16         0.00000000
  17         0.00000000
  18         0.00000000
  19         0.16261370
Sym=     3b2 
Ene=     1.5387
Spin= Beta
Occup=    0.00000
   1         0.00000000
   2         0.00000000
   3         0.00000000
   4         1.01773609
   5         0.00000000
   6         0.00000000
   7         0.00000000
   8         0.00000000
   9         0.00000000
  10         0.10755433
  11         0.00000000
  12         0.00000000
  13        -0.53064514
  14         0.00000000
  15         0.00000000
  16         0.00000000
  17         0.00000000
  18         0.00000000
  19         0.13549531
Sym=     4b2 
Ene=     3.1793
Spin= Alpha
Occup=    0.00000
   1         0.00000000
   2         0.00000000
   3         0.00000000
   4        -0.51656488
   5         0.00000000
   6         0.00000000
   7         0.00000000
   8         0.00000000
   9         0.00000000
  10        -0.03484905
  11         0.00000000
  12         0.00000000
  13         0.21431562
  14         0.00000000
  15         0.00000000
  16         0.00000000
  17         0.00000000
  18         0.00000000
  19         1.04008291
Sym=     4b2 
Ene=     3.2837
Spin= Beta
Occup=    0.00000
   1         0.00000000
   2         0.00000000
   3         0.00000000
   4        -0.49008796
   5         0.00000000
   6         0.00000000
   7         0.00000000
   8         0.00000000
   9         0.00000000
  10        -0.02983019
  11         0.00000000
  12         0.00000000
  13         0.20247863
  14         0.00000000
  15         0.00000000
  16         0.00000000
  17         0.00000000
  18         0.00000000
  19         1.04401620
Sym=     1a2 
Ene=     2.8770
Spin= Alpha
Occup=    0.00000
   1         0.00000000
   2         0.00000000
   3         0.00000000
   4         0.00000000
   5         0.00000000
   6         0.00000000
   7         0.00000000
   8         0.00000000
   9         0.00000000
  10         0.00000000
  11         0.00000000
  12         0.00000000
  13         0.00000000
  14         0.00000000
  15         0.00000000
  16         0.00000000
  17         1.00000000
  18         0.00000000
  19         0.00000000
Sym=     1a2 
Ene=     2.9983
Spin= Beta
Occup=    0.00000
   1         0.00000000
   2         0.00000000
   3         0.00000000
   4         0.00000000
   5         0.00000000
   6         0.00000000
   7         0.00000000
   8         0.00000000
   9         0.00000000
  10         0.00000000
  11         0.00000000
  12         0.00000000
  13         0.00000000
  14         0.00000000
  15         0.00000000
  16         0.00000000
  17         1.00000000
  18         0.00000000
  19         0.00000000
Sym=     1b1 
Ene=    -0.5440
Spin= Alpha
Occup=    1.00000
   1         0.00000000
   2         0.00000000
   3         0.00000000
   4         0.00000000
   5         0.02980320
   6         0.00000000
   7         0.00000000
   8         0.00000000
   9         0.00000000
  10         0.00000000
  11         0.96076291
  12         0.00000000
  13         0.00000000
  14         0.03679645
  15         0.00000000
  16         0.01585176
  17         0.00000000
  18         0.00000000
  19         0.00000000
Sym=     1b1 
Ene=    -0.4979
Spin= Beta
Occup=    1.00000
   1         0.00000000
   2         0.00000000
   3         0.00000000
   4         0.00000000
   5         0.03303408
   6         0.00000000
   7         0.00000000
   8         0.00000000
   9         0.00000000
  10         0.00000000
  11         0.93526328
  12         0.00000000
  13         0.00000000
  14         0.06639884
  15         0.00000000
  16         0.01400460
  17         0.00000000
  18         0.00000000
  19         0.00000000
Sym=     2b1 
Ene=     1.1623
Spin= Alpha
Occup=    0.00000
   1         0.00000000
   2         0.00000000
   3         0.00000000
   4         0.00000000
   5         0.07313861
   6         0.00000000
   7         0.00000000
   8         0.00000000
   9         0.00000000
  10         0.00000000
  11        -1.37999585
  12         0.00000000
  13         0.00000000
  14         1.65057290
  15         0.00000000
  16         0.00160510
  17         0.00000000
  18         0.00000000
  19         0.00000000
Sym=     2b1 
Ene=     1.1862
Spin= Beta
Occup=    0.00000
   1         0.00000000
   2         0.00000000
   3         0.00000000
   4         0.00000000
   5         0.08094835
   6         0.00000000
   7         0.00000000
   8         0.00000000
   9         0.00000000
  10         0.00000000
  11        -1.39672697
  12         0.00000000
  13         0.00000000
  14         1.64530831
  15         0.00000000
  16         0.00290438
  17         0.00000000
  18         0.00000000
  19         0.00000000
Sym=     3b1 
Ene=     1.5316
Spin= Alpha
Occup=    0.00000
   1         0.00000000
   2         0.00000000
   3         0.00000000
   4         0.00000000
   5         1.01012770
   6         0.00000000
   7         0.00000000
   8         0.00000000
   9         0.00000000
  10         0.00000000
  11         0.08765901
  12         0.00000000
  13         0.00000000
  14        -0.51036249
  15         0.00000000
  16         0.15274847
  17         0.00000000
  18         0.00000000
  19         0.00000000
Sym=     3b1 
Ene=     1.5284
Spin= Beta
Occup=    0.00000
   1         0.00000000
   2         0.00000000
   3         0.00000000
   4         0.00000000
   5         1.01154637
   6         0.00000000
   7         0.00000000
   8         0.00000000
   9         0.00000000
  10         0.00000000
  11         0.09874245
  12         0.00000000
  13         0.00000000
  14        -0.52519539
  15         0.00000000
  16         0.14839300
  17         0.00000000
  18         0.00000000
  19         0.00000000
Sym=     4b1 
Ene=     3.2405
Spin= Alpha
Occup=    0.00000
   1         0.00000000
   2         0.00000000
   3         0.00000000
   4         0.00000000
   5        -0.50696657
   6         0.00000000
   7         0.00000000
   8         0.00000000
   9         0.00000000
  10         0.00000000
  11        -0.03481150
  12         0.00000000
  13         0.00000000
  14         0.21156570
  15         0.00000000
  16         1.04158420
  17         0.00000000
  18         0.00000000
  19         0.00000000
Sym=     4b1 
Ene=     3.2576
Spin= Beta
Occup=    0.00000
   1         0.00000000
   2         0.00000000
   3         0.00000000
   4         0.00000000
   5        -0.50273314
   6         0.00000000
   7         0.00000000
   8         0.00000000
   9         0.00000000
  10         0.00000000
  11        -0.03218905
  12         0.00000000
  13         0.00000000
  14         0.20903671
  15         0.00000000
  16         1.04223728
  17         0.00000000
  18         0.00000000
  19         0.00000000
