[Molden Format]
[N_Atoms]
                    2
[Atoms] (AU)
H1          1      1           0.00000000      0.00000000      0.00000000
H2          2      1           1.88972612      0.00000000      0.00000000
[5D]
[Charge] (Mulliken)
   0.0000000000000000     
   0.0000000000000000     
[GTO] (AU)
   1
   s   5
  3.387000000E+01  6.067999217E-03
  5.095000000E+00  4.530799416E-02
  1.159000000E+00  2.028219738E-01
  3.258000000E-01  5.039029350E-01
  1.027000000E-01  3.834209505E-01
   s   1
  3.258000000E-01  1.000000000E+00
   s   1
  1.027000000E-01  1.000000000E+00
   p   1
  1.407000000E+00  1.000000000E+00
   p   1
  3.880000000E-01  1.000000000E+00
   d   1
  1.057000000E+00  1.000000000E+00
 
   2
   s   5
  3.387000000E+01  6.067999217E-03
  5.095000000E+00  4.530799416E-02
  1.159000000E+00  2.028219738E-01
  3.258000000E-01  5.039029350E-01
  1.027000000E-01  3.834209505E-01
   s   1
  3.258000000E-01  1.000000000E+00
   s   1
  1.027000000E-01  1.000000000E+00
   p   1
  1.407000000E+00  1.000000000E+00
   p   1
  3.880000000E-01  1.000000000E+00
   d   1
  1.057000000E+00  1.000000000E+00
 
[MO]
Sym=     1a  
Ene=    -0.7848
Spin= Alpha
Occup=    2.00000
   1         0.73513988
   2        -0.08828955
   3        -0.09924046
   4         0.00000000
   5         0.00000000
   6        -0.00000000
   7         0.00000000
   8        -0.00000000
   9        -0.00000000
  10        -0.00000000
  11        -0.00000000
  12        -0.00000000
  13         0.00000000
  14        -0.00000000
  15         0.73513988
  16        -0.08828955
  17        -0.09924046
  18         0.00000000
  19        -0.00000000
  20        -0.00000000
  21         0.00000000
  22         0.00000000
  23         0.00000000
  24         0.00000000
  25        -0.00000000
  26         0.00000000
  27        -0.00000000
  28        -0.00000000
Sym=     2a  
Ene=    -0.2150
Spin= Alpha
Occup=    0.00000
   1        -1.40460151
   2         0.16869120
   3         0.18961466
   4        -0.00000000
   5        -0.00000000
   6         0.00000000
   7        -0.00000000
   8        -0.00000000
   9        -0.00000000
  10         0.00000000
  11        -0.00000000
  12        -0.00000000
  13         0.00000000
  14        -0.00000000
  15         1.40460151
  16        -0.16869120
  17        -0.18961466
  18        -0.00000000
  19        -0.00000000
  20        -0.00000000
  21        -0.00000000
  22         0.00000000
  23         0.00000000
  24        -0.00000000
  25        -0.00000000
  26        -0.00000000
  27         0.00000000
  28        -0.00000000
Sym=     3a  
Ene=     3.4781
Spin= Alpha
Occup=    0.00000
   1         0.28303080
   2        -1.12529347
   3         0.84034424
   4        -0.00430844
   5        -0.00000000
   6        -0.00000000
   7         0.05135652
   8         0.00000000
   9         0.00000000
  10        -0.00819871
  11        -0.00000000
  12        -0.00000000
  13         0.01420058
  14        -0.00000000
  15         0.28303080
  16        -1.12529347
  17         0.84034424
  18         0.00430844
  19        -0.00000000
  20        -0.00000000
  21        -0.05135652
  22        -0.00000000
  23         0.00000000
  24        -0.00819871
  25         0.00000000
  26        -0.00000000
  27         0.01420058
  28         0.00000000
Sym=     4a  
Ene=     3.4781
Spin= Alpha
Occup=    0.00000
   1        -0.16733926
   2         0.96710882
   3        -2.47655932
   4         0.03005515
   5        -0.00000000
   6         0.00000000
   7        -0.24626600
   8         0.00000000
   9        -0.00000000
  10        -0.00182563
  11         0.00000000
  12         0.00000000
  13         0.00316209
  14        -0.00000000
  15         0.16733926
  16        -0.96710882
  17         2.47655932
  18         0.03005515
  19        -0.00000000
  20         0.00000000
  21        -0.24626600
  22        -0.00000000
  23        -0.00000000
  24         0.00182563
  25         0.00000000
  26         0.00000000
  27        -0.00316209
  28         0.00000000
Sym=     5a  
Ene=     3.8302
Spin= Alpha
Occup=    0.00000
   1        -0.00000000
   2         0.00000000
   3        -0.00000000
   4        -0.00000000
   5        -0.00000000
   6        -0.10251399
   7         0.00000000
   8         0.00000000
   9         0.63308523
  10        -0.00000000
  11        -0.02152750
  12        -0.00000000
  13         0.00000000
  14        -0.00000000
  15        -0.00000000
  16        -0.00000000
  17         0.00000000
  18        -0.00000000
  19         0.00000000
  20        -0.10251399
  21         0.00000000
  22        -0.00000000
  23         0.63308523
  24         0.00000000
  25         0.02152750
  26         0.00000000
  27        -0.00000000
  28        -0.00000000
Sym=     6a  
Ene=     3.8302
Spin= Alpha
Occup=    0.00000
   1         0.00000000
   2         0.00000000
   3        -0.00000000
   4         0.00000000
   5        -0.10251399
   6         0.00000000
   7         0.00000000
   8         0.63308523
   9         0.00000000
  10        -0.00000000
  11         0.00000000
  12        -0.00000000
  13         0.00000000
  14        -0.02152750
  15         0.00000000
  16        -0.00000000
  17        -0.00000000
  18         0.00000000
  19        -0.10251399
  20         0.00000000
  21         0.00000000
  22         0.63308523
  23        -0.00000000
  24         0.00000000
  25         0.00000000
  26         0.00000000
  27        -0.00000000
  28         0.02152750
Sym=     7a  
Ene=     4.1716
Spin= Alpha
Occup=    0.00000
   1         0.00000000
   2         0.00000000
   3        -0.00000000
   4         0.00000000
   5         0.00000000
   6         0.12557072
   7         0.00000000
   8        -0.00000000
   9        -1.11243186
  10         0.00000000
  11        -0.03560217
  12        -0.00000000
  13         0.00000000
  14        -0.00000000
  15         0.00000000
  16        -0.00000000
  17        -0.00000000
  18        -0.00000000
  19         0.00000000
  20        -0.12557072
  21         0.00000000
  22         0.00000000
  23         1.11243186
  24        -0.00000000
  25        -0.03560217
  26         0.00000000
  27        -0.00000000
  28        -0.00000000
Sym=     8a  
Ene=     4.1716
Spin= Alpha
Occup=    0.00000
   1         0.00000000
   2         0.00000000
   3        -0.00000000
   4         0.00000000
   5         0.12557072
   6         0.00000000
   7         0.00000000
   8        -1.11243186
   9         0.00000000
  10        -0.00000000
  11         0.00000000
  12         0.00000000
  13         0.00000000
  14        -0.03560217
  15        -0.00000000
  16        -0.00000000
  17        -0.00000000
  18         0.00000000
  19        -0.12557072
  20         0.00000000
  21         0.00000000
  22         1.11243186
  23        -0.00000000
  24         0.00000000
  25         0.00000000
  26         0.00000000
  27        -0.00000000
  28        -0.03560217
Sym=     9a  
Ene=     4.1726
Spin= Alpha
Occup=    0.00000
   1        -0.00136914
   2         0.50677644
   3        -0.24406722
   4         0.14639625
   5         0.00000000
   6        -0.00000000
   7        -0.85341591
   8        -0.00000000
   9         0.00000000
  10        -0.00160111
  11         0.00000000
  12         0.00000000
  13         0.00277320
  14         0.00000000
  15        -0.00136914
  16         0.50677644
  17        -0.24406722
  18        -0.14639625
  19         0.00000000
  20         0.00000000
  21         0.85341591
  22         0.00000000
  23        -0.00000000
  24        -0.00160111
  25         0.00000000
  26        -0.00000000
  27         0.00277320
  28        -0.00000000
Sym=    10a  
Ene=     4.5654
Spin= Alpha
Occup=    0.00000
   1        -0.46530170
   2         4.52602523
   3         0.68345703
   4        -0.06976026
   5        -0.00000000
   6        -0.00000000
   7         3.43767352
   8         0.00000000
   9         0.00000000
  10        -0.12763174
  11         0.00000000
  12         0.00000000
  13         0.22106466
  14        -0.00000000
  15         0.46530170
  16        -4.52602523
  17        -0.68345703
  18        -0.06976026
  19        -0.00000000
  20         0.00000000
  21         3.43767352
  22        -0.00000000
  23        -0.00000000
  24         0.12763174
  25         0.00000000
  26         0.00000000
  27        -0.22106466
  28         0.00000000
Sym=    11a  
Ene=     6.4371
Spin= Alpha
Occup=    0.00000
   1        -0.00000000
   2         0.00000000
   3         0.00000000
   4         0.00000000
   5        -0.00000000
   6         0.00000000
   7         0.00000000
   8         0.00000000
   9        -0.00000000
  10         0.57066933
  11         0.00000000
  12        -0.00247935
  13         0.32947609
  14        -0.00000000
  15         0.00000000
  16        -0.00000000
  17        -0.00000000
  18         0.00000000
  19        -0.00000000
  20         0.00000000
  21         0.00000000
  22        -0.00000000
  23        -0.00000000
  24         0.57066933
  25        -0.00000000
  26        -0.00247935
  27         0.32947609
  28         0.00000000
Sym=    12a  
Ene=     6.4371
Spin= Alpha
Occup=    0.00000
   1         0.00000000
   2        -0.00000000
   3        -0.00000000
   4        -0.00000000
   5         0.00000000
   6         0.00000000
   7        -0.00000000
   8        -0.00000000
   9        -0.00000000
  10         0.00214718
  11         0.00000000
  12         0.65895218
  13         0.00123968
  14         0.00000000
  15        -0.00000000
  16         0.00000000
  17         0.00000000
  18        -0.00000000
  19        -0.00000000
  20         0.00000000
  21        -0.00000000
  22         0.00000000
  23        -0.00000000
  24         0.00214718
  25        -0.00000000
  26         0.65895218
  27         0.00123968
  28        -0.00000000
Sym=    13a  
Ene=     6.4805
Spin= Alpha
Occup=    0.00000
   1        -3.14208051
   2         2.39262902
   3         0.92049501
   4        -0.24388559
   5         0.00000000
   6         0.00000000
   7         0.12444648
   8        -0.00000000
   9        -0.00000000
  10         0.15737732
  11         0.00000000
  12         0.00000000
  13        -0.27258551
  14         0.00000000
  15        -3.14208051
  16         2.39262902
  17         0.92049501
  18         0.24388559
  19         0.00000000
  20         0.00000000
  21        -0.12444648
  22         0.00000000
  23        -0.00000000
  24         0.15737732
  25        -0.00000000
  26         0.00000000
  27        -0.27258551
  28        -0.00000000
Sym=    14a  
Ene=     6.5309
Spin= Alpha
Occup=    0.00000
   1        -4.45049441
   2         6.21621360
   3         0.99750752
   4         0.15819719
   5        -0.00000000
   6         0.00000000
   7         1.62378191
   8         0.00000000
   9        -0.00000000
  10        -0.23941898
  11         0.00000000
  12         0.00000000
  13         0.41468584
  14        -0.00000000
  15         4.45049441
  16        -6.21621360
  17        -0.99750752
  18         0.15819719
  19        -0.00000000
  20         0.00000000
  21         1.62378191
  22        -0.00000000
  23        -0.00000000
  24         0.23941898
  25        -0.00000000
  26         0.00000000
  27        -0.41468584
  28         0.00000000
Sym=    15a  
Ene=     6.5348
Spin= Alpha
Occup=    0.00000
   1        -0.00000000
   2         0.00000000
   3         0.00000000
   4         0.00000000
   5        -0.00000000
   6        -0.23706947
   7         0.00000000
   8         0.00000000
   9         0.19107228
  10        -0.00000000
  11        -0.56433920
  12         0.00000000
  13         0.00000000
  14        -0.00000000
  15         0.00000000
  16        -0.00000000
  17        -0.00000000
  18         0.00000000
  19        -0.00000000
  20        -0.23706947
  21         0.00000000
  22        -0.00000000
  23         0.19107228
  24         0.00000000
  25         0.56433920
  26         0.00000000
  27        -0.00000000
  28         0.00000000
Sym=    16a  
Ene=     6.5348
Spin= Alpha
Occup=    0.00000
   1         0.00000000
   2        -0.00000000
   3         0.00000000
   4        -0.00000000
   5        -0.23706947
   6         0.00000000
   7        -0.00000000
   8         0.19107228
   9         0.00000000
  10         0.00000000
  11         0.00000000
  12         0.00000000
  13        -0.00000000
  14        -0.56433920
  15        -0.00000000
  16         0.00000000
  17         0.00000000
  18        -0.00000000
  19        -0.23706947
  20         0.00000000
  21        -0.00000000
  22         0.19107228
  23        -0.00000000
  24        -0.00000000
  25         0.00000000
  26         0.00000000
  27         0.00000000
  28         0.56433920
Sym=    17a  
Ene=     7.0556
Spin= Alpha
Occup=    0.00000
   1        -0.00000000
   2         0.00000000
   3         0.00000000
   4         0.00000000
   5         0.00000000
   6        -0.00000000
   7        -0.00000000
   8        -0.00000000
   9         0.00000000
  10        -0.66478958
  11        -0.00000000
  12         0.00064855
  13        -0.38381644
  14         0.00000000
  15        -0.00000000
  16         0.00000000
  17         0.00000000
  18        -0.00000000
  19        -0.00000000
  20        -0.00000000
  21         0.00000000
  22         0.00000000
  23         0.00000000
  24         0.66478958
  25         0.00000000
  26        -0.00064855
  27         0.38381644
  28        -0.00000000
Sym=    18a  
Ene=     7.0556
Spin= Alpha
Occup=    0.00000
   1         0.00000000
   2        -0.00000000
   3        -0.00000000
   4         0.00000000
   5        -0.00000000
   6        -0.00000000
   7        -0.00000000
   8         0.00000000
   9         0.00000000
  10        -0.00056166
  11        -0.00000000
  12        -0.76763288
  13        -0.00032428
  14         0.00000000
  15        -0.00000000
  16         0.00000000
  17         0.00000000
  18        -0.00000000
  19         0.00000000
  20        -0.00000000
  21        -0.00000000
  22        -0.00000000
  23         0.00000000
  24         0.00056166
  25         0.00000000
  26         0.76763288
  27         0.00032428
  28        -0.00000000
Sym=    19a  
Ene=     7.1551
Spin= Alpha
Occup=    0.00000
   1        -1.99022343
   2         1.62045736
   3         0.54527617
   4         0.77902955
   5         0.00000000
   6         0.00000000
   7        -0.51676769
   8        -0.00000000
   9        -0.00000000
  10         0.04349008
  11        -0.00000000
  12         0.00000000
  13        -0.07532704
  14         0.00000000
  15        -1.99022343
  16         1.62045736
  17         0.54527617
  18        -0.77902955
  19         0.00000000
  20         0.00000000
  21         0.51676769
  22         0.00000000
  23        -0.00000000
  24         0.04349008
  25         0.00000000
  26        -0.00000000
  27        -0.07532704
  28        -0.00000000
Sym=    20a  
Ene=     7.4432
Spin= Alpha
Occup=    0.00000
   1        -0.00000000
   2         0.00000000
   3         0.00000000
   4        -0.00000000
   5        -0.00000000
   6         0.85761857
   7         0.00000000
   8         0.00000000
   9        -0.37196174
  10        -0.00000000
  11        -0.22492407
  12        -0.00000000
  13         0.00000000
  14        -0.00000000
  15         0.00000000
  16        -0.00000000
  17        -0.00000000
  18        -0.00000000
  19        -0.00000000
  20         0.85761857
  21         0.00000000
  22        -0.00000000
  23        -0.37196174
  24         0.00000000
  25         0.22492407
  26         0.00000000
  27        -0.00000000
  28         0.00000000
Sym=    21a  
Ene=     7.4432
Spin= Alpha
Occup=    0.00000
   1         0.00000000
   2        -0.00000000
   3        -0.00000000
   4        -0.00000000
   5         0.85761857
   6         0.00000000
   7        -0.00000000
   8        -0.37196174
   9         0.00000000
  10         0.00000000
  11         0.00000000
  12        -0.00000000
  13        -0.00000000
  14        -0.22492407
  15         0.00000000
  16         0.00000000
  17        -0.00000000
  18        -0.00000000
  19         0.85761857
  20        -0.00000000
  21        -0.00000000
  22        -0.37196174
  23         0.00000000
  24        -0.00000000
  25         0.00000000
  26         0.00000000
  27         0.00000000
  28         0.22492407
Sym=    22a  
Ene=     7.4857
Spin= Alpha
Occup=    0.00000
   1        -0.91762742
   2        -2.23220375
   3        -0.03343910
   4         0.35221517
   5        -0.00000000
   6         0.00000000
   7        -2.31214143
   8         0.00000000
   9        -0.00000000
  10         0.47800564
  11        -0.00000000
  12         0.00000000
  13        -0.82793006
  14        -0.00000000
  15         0.91762742
  16         2.23220375
  17         0.03343910
  18         0.35221517
  19        -0.00000000
  20        -0.00000000
  21        -2.31214143
  22        -0.00000000
  23         0.00000000
  24        -0.47800564
  25        -0.00000000
  26        -0.00000000
  27         0.82793006
  28         0.00000000
Sym=    23a  
Ene=     7.4966
Spin= Alpha
Occup=    0.00000
   1        -0.00000000
   2        -0.00000000
   3         0.00000000
   4         0.00000000
   5        -0.00000000
   6        -0.78637764
   7        -0.00000000
   8         0.00000000
   9         0.78978033
  10         0.00000000
  11         0.50969269
  12        -0.00000000
  13        -0.00000000
  14        -0.00000000
  15         0.00000000
  16         0.00000000
  17        -0.00000000
  18         0.00000000
  19         0.00000000
  20         0.78637764
  21        -0.00000000
  22        -0.00000000
  23        -0.78978033
  24        -0.00000000
  25         0.50969269
  26         0.00000000
  27         0.00000000
  28         0.00000000
Sym=    24a  
Ene=     7.4966
Spin= Alpha
Occup=    0.00000
   1         0.00000000
   2         0.00000000
   3        -0.00000000
   4         0.00000000
   5        -0.78637764
   6        -0.00000000
   7         0.00000000
   8         0.78978033
   9        -0.00000000
  10        -0.00000000
  11        -0.00000000
  12        -0.00000000
  13         0.00000000
  14         0.50969269
  15         0.00000000
  16        -0.00000000
  17        -0.00000000
  18         0.00000000
  19         0.78637764
  20        -0.00000000
  21         0.00000000
  22        -0.78978033
  23         0.00000000
  24         0.00000000
  25        -0.00000000
  26         0.00000000
  27        -0.00000000
  28         0.50969269
Sym=    25a  
Ene=     8.2344
Spin= Alpha
Occup=    0.00000
   1        -0.00000000
   2         0.00000000
   3         0.00000000
   4         0.00000000
   5        -0.00000000
   6         0.46848921
   7         0.00000000
   8         0.00000000
   9         0.19270044
  10        -0.00000000
  11         0.96128537
  12         0.00000000
  13        -0.00000000
  14        -0.00000000
  15         0.00000000
  16        -0.00000000
  17        -0.00000000
  18         0.00000000
  19         0.00000000
  20        -0.46848921
  21         0.00000000
  22        -0.00000000
  23        -0.19270044
  24         0.00000000
  25         0.96128537
  26         0.00000000
  27        -0.00000000
  28        -0.00000000
Sym=    26a  
Ene=     8.2344
Spin= Alpha
Occup=    0.00000
   1         0.00000000
   2         0.00000000
   3        -0.00000000
   4         0.00000000
   5         0.46848921
   6         0.00000000
   7         0.00000000
   8         0.19270044
   9        -0.00000000
  10        -0.00000000
  11        -0.00000000
  12        -0.00000000
  13         0.00000000
  14         0.96128537
  15         0.00000000
  16        -0.00000000
  17        -0.00000000
  18         0.00000000
  19        -0.46848921
  20        -0.00000000
  21         0.00000000
  22        -0.19270044
  23         0.00000000
  24         0.00000000
  25        -0.00000000
  26         0.00000000
  27        -0.00000000
  28         0.96128537
Sym=    27a  
Ene=     8.5504
Spin= Alpha
Occup=    0.00000
   1        -3.39235110
   2         2.13162980
   3         1.23176382
   4        -0.50586036
   5         0.00000000
   6        -0.00000000
   7         0.50246496
   8        -0.00000000
   9         0.00000000
  10        -0.36837986
  11         0.00000000
  12        -0.00000000
  13         0.63805264
  14         0.00000000
  15        -3.39235110
  16         2.13162980
  17         1.23176382
  18         0.50586036
  19         0.00000000
  20        -0.00000000
  21        -0.50246496
  22         0.00000000
  23         0.00000000
  24        -0.36837986
  25         0.00000000
  26         0.00000000
  27         0.63805264
  28        -0.00000000
Sym=    28a  
Ene=     9.8676
Spin= Alpha
Occup=    0.00000
   1         0.82720314
   2         2.32057710
   3        -0.61893543
   4         1.18623294
   5        -0.00000000
   6         0.00000000
   7         1.44531558
   8         0.00000000
   9        -0.00000000
  10        -0.55359420
  11        -0.00000000
  12        -0.00000000
  13         0.95885328
  14        -0.00000000
  15        -0.82720314
  16        -2.32057710
  17         0.61893543
  18         1.18623294
  19        -0.00000000
  20        -0.00000000
  21         1.44531558
  22        -0.00000000
  23         0.00000000
  24         0.55359420
  25        -0.00000000
  26         0.00000000
  27        -0.95885328
  28         0.00000000
