   This run of MOLCAS is using the pymolcas driver

                             OPE
                             OPE          NMOL  CASOP  ENMOLC A   SO
                 OPE        NMOLC        AS  OP EN  MO LC     AS  OP
                OPENM       OL CA        SO  PE NM  OL CA     SOP EN
                OP EN      MO   LC       AS  OP ENMOL  CASO   PENMOL
                OP  EN     MO   LC       AS  OP EN     MO     LC ASO
               OP   E  NMOL  C  AS       OP  EN MO     LC     AS  OP
               OP  E   NMO   LC AS        OPEN  MO     LCASOP EN   M
               O  PEN   MO  LCA  SO
            OPE   NMO   L   CAS    OP
        OPENMOL  CASOP     ENMOL   CASOPE
     OPENMOLCA   SOPENMOLCASOPEN   MOLCASOPE
    OPENMOLCAS   OP           EN   MOL    CAS
    OPENMOLCAS       OP  ENM        O     LCA
    OPENMOLCAS    OPEN  MOLCASO     P  E  NMO
    OPENMOLCAS     OP               E  N  MOL
    OPENMOLCA   SO           PENM   O  L  CAS    OPEN    MO    LCAS
    OPENMOLCA   SOP           ENM   O  L  CAS   OP  EN  MOLC  AS   O
    OPENMOLCA   SOPE           NM      O  LCA   S      OP  EN MO
    OPENMOLC                AS         O  PEN   M      OL  CA  SOPE
    OPENMO        LCASOPE  NMOL        C  ASO   P      ENMOLC     AS
    OPE     NMO      LCA  SO     P     E   NM   OL  CA SO  PE N   MO
          OPENMOLCA            SOPE   NMO        LCAS  O    P  ENMO
     OPENMOLCASOPENMOLCASOPENMOLCASOPENMOLCA
        OPENMOLCASOPENMOLCASOPENMOLCASOPE
            OPENMOLCASOPENMOLCASOPENM
               OPENMOLCASOPENMOLCA        version: 24.02
                   OPENMOLCASO
                       OPE                tag: 428-g03afa2e9a

 OpenMolcas is free software; you can redistribute it and/or modify it
 under the terms of the GNU Lesser General Public License version 2.1.
 OpenMolcas is distributed in the hope that it will be useful, but it
 is provided "as is" and without any express or implied warranties.
 For more details see the full text of the license in the file
 LICENSE or in <http://www.gnu.org/licenses/>.

                 Copyright (C) The OpenMolcas Authors
           For the author list and the recommended citation,
                   consult the file CONTRIBUTORS.md

           *************************************************
           * pymolcas version py2.28                       *
           *   build c4a6d18ded8cb6cad61d2372a9abd97c      *
           *   (after the EMIL interpreter by V. Veryazov) *
           *************************************************

configuration info
------------------
Host name: DESKTOP-ET1S6F4 (Linux)
C Compiler ID: GNU
C flags: -std=gnu99 -fopenmp
Fortran Compiler ID: GNU
Fortran flags: -fno-aggressive-loop-optimizations -cpp -fdefault-integer-8 -fopenmp
Definitions: _WARNING_WORKAROUND_;_MOLCAS_;_I8_;_LINUX_
Parallel: OFF (GA=OFF)


   ----------------------------------------------------------------------
  |
  |           Project: test
  |    Submitted from: /home/kenya/molcas_test/00
  |      Scratch area: /tmp/test
  |   Save outputs to: /home/kenya/molcas_test/00
  |            Molcas: /home/kenya/OpenMolcas/builds/gnu_dev_omp
  |
  | Scratch area is NOT empty
  |
  |    MOLCAS_DRIVER = /home/kenya/OpenMolcas/builds/gnu_dev_omp/pymolcas
  |    MOLCAS_NPROCS = 1
  |    MOLCAS_SOURCE = /home/kenya/OpenMolcas
  | MOLCAS_STRUCTURE = 0
  |
   ----------------------------------------------------------------------

++ ---------   Input file   ---------

&GATEWAY
  Coord = 2
  Angstrom
  H 0.0 0.0 0.0
  H 1.0 0.0 0.0
  Basis = cc-pVTZ
  Group = C1
  NoCD

&SEWARD

&SCF

-- ----------------------------------

*** symbolic link created: INPORB -> test.ScfOrb
--- Start Module: gateway at Wed Apr 24 11:56:34 2024 ---

()()()()()()()()()()()()()()()()()()()()()()()()()()()()()()()()()()()()()()()()()()()()()()()()()()

                                              &GATEWAY

                                   only a single process is used
                       available to each process: 2.0 GB of memory, 1 thread
                                            pid: 160311
()()()()()()()()()()()()()()()()()()()()()()()()()()()()()()()()()()()()()()()()()()()()()()()()()()


++    Symmetry information:
      ---------------------

                    Character Table for C1 

                             E  
                    a        1  x, y, xy, Rz, z, xz, Ry, yz, Rx, I
--


++    Basis set information:
      ----------------------


      Basis set label: H.CC-PVTZ.........

      Electronic valence basis set:
      ------------------
      Associated Effective Charge   1.000000 au
      Associated Actual Charge      1.000000 au
      Nuclear Model: Point charge

      Shell  nPrim  nBasis  Cartesian Spherical Contaminant
         s       5       3        X                  
         p       2       2        X                  
         d       1       1                 X         
--


++    Molecular structure info:
      -------------------------

                    ************************************************ 
                    **** Cartesian Coordinates / Bohr, Angstrom **** 
                    ************************************************ 

     Center  Label                x              y              z                     x              y              z
        1      H1               0.000000       0.000000       0.000000              0.000000       0.000000       0.000000
        2      H2               1.889726       0.000000       0.000000              1.000000       0.000000       0.000000
--


            Nuclear Potential Energy              0.52917721 au

--- Stop Module: gateway at Wed Apr 24 11:56:34 2024 /rc=_RC_ALL_IS_WELL_ ---
*** files: xmldump
    saved to directory /home/kenya/molcas_test/00

*** symbolic link created: INPORB -> test.ScfOrb
--- Start Module: seward at Wed Apr 24 11:56:34 2024 ---

()()()()()()()()()()()()()()()()()()()()()()()()()()()()()()()()()()()()()()()()()()()()()()()()()()

                                              &SEWARD

                                   only a single process is used
                       available to each process: 2.0 GB of memory, 1 thread
                                            pid: 160315
()()()()()()()()()()()()()()()()()()()()()()()()()()()()()()()()()()()()()()()()()()()()()()()()()()

               SEWARD will generate:
                  Multipole Moment integrals up to order  2
                  Kinetic Energy integrals
                  Nuclear Attraction integrals (point charge)
                  One-Electron Hamiltonian integrals
                  Velocity integrals
                  Orbital angular momentum around ( 0.9449  0.0000  0.0000 )
                  Velocity quadrupole around ( 0.9449  0.0000  0.0000 )
                  Two-Electron Repulsion integrals

                   Integrals are discarded if absolute value <: 1.00E-14
                   Integral cutoff threshold is set to       <: 1.00E-16

            Nuclear Potential Energy              0.52917721 au


      Basis set specifications :
      Symmetry species         a  
      Basis functions           28


      Input file to MOLDEN was generated!

--- Stop Module: seward at Wed Apr 24 11:56:34 2024 /rc=_RC_ALL_IS_WELL_ ---
*** files: test.GssOrb test.guessorb.molden xmldump
    saved to directory /home/kenya/molcas_test/00

*** symbolic link created: INPORB -> test.ScfOrb
--- Start Module: scf at Wed Apr 24 11:56:34 2024 ---

()()()()()()()()()()()()()()()()()()()()()()()()()()()()()()()()()()()()()()()()()()()()()()()()()()

                                                &SCF

                                   only a single process is used
                       available to each process: 2.0 GB of memory, 1 thread
                                            pid: 160319
()()()()()()()()()()()()()()()()()()()()()()()()()()()()()()()()()()()()()()()()()()()()()()()()()()

++    Input section:
      --------------

      Header of the integral files:
      
       Integrals generated by Gateway/Seward, Wed Apr 24 11:56:34 2024


      Cartesian coordinates in Angstrom:
      -----------------------------------------------------
      No.  Label        X            Y            Z        
      -----------------------------------------------------
       1   H1         0.00000000   0.00000000   0.00000000
       2   H2         1.00000000   0.00000000   0.00000000
      -----------------------------------------------------
      Nuclear repulsion energy =    0.52917721
--

++    Orbital specifications:
      -----------------------

      Symmetry species               1
                                     a
      Frozen orbitals                0
      Occupied orbitals              1
      Secondary orbitals            27
      Deleted orbitals               0
      Total number of orbitals      28
      Number of basis functions     28
--

      Molecular charge                           0.000

++    Optimization specifications:
      ----------------------------

      SCF Algorithm: Conventional
      Minimized density differences are used
      Number of density matrices in core                 5
      Maximum number of NDDO SCF iterations            400
      Maximum number of HF SCF iterations              400
      Threshold for SCF energy change             1.00E-09
      Threshold for density matrix                1.00E-04
      Threshold for Fock matrix                   1.50E-04
      Threshold for linear dependence             1.00E-09
      Threshold at which DIIS is turned on        1.50E-01
      Maximum depth in the DIIS procedure                5
      Maximum depth in the BFGS Hessian update          30
      Threshold at which QNR/C2DIIS is turned on  7.50E-02
      Threshold for Norm(delta) (QNR/C2DIIS)      1.00E-03
      All orbitals punched on: SCFORB
--

      Detected guessorb starting orbitals                                             


++ Convergence information
                                   SCF        iterations: Energy and convergence statistics

Iter     Tot. SCF        One-elec.       Two-elec.     Energy      Max Dij or  Max Fij      DNorm      TNorm      AccCon     Time
         Energy          Energy          Energy        Change      Delta Norm                                                in Sec.
   1    -1.095804541    -2.192962931     0.567981180   0.00E+00    5.86E-02*   6.74E-02*    2.76E+00   6.12E+00   None         0.
   2    -1.101893860    -2.208090316     0.577019246  -6.09E-03*   1.16E-02*   8.89E-03*    1.71E-01   6.15E+00   EDIIS        0.
   3    -1.102056445    -2.209662986     0.578429330  -1.63E-04*   5.06E-04*   2.14E-03*    1.22E-02   6.16E+00   c2DIIS       0.
   4    -1.102062306    -2.209899220     0.578659703  -5.86E-06*   6.92E-05    8.49E-05     5.32E-04   6.16E+00   QNRc2DIIS    0.
   5    -1.102062323    -2.209887597     0.578648063  -1.65E-08*   2.00E-05    1.85E-05     2.30E-05   6.16E+00   QNRc2DIIS    0.
   6    -1.102062324    -2.209883733     0.578644199  -8.13E-10    6.52E-07    1.02E-06     3.17E-06   6.16E+00   QNRc2DIIS    0.

       Convergence after   6 Macro Iterations
--

 *****************************************************************************************************************************
 *                                                                                                                           *
 *                                             SCF/KS-DFT Program, Final results                                             *
 *                                                                                                                           *
 *                                                                                                                           *
 *                                                                                                                           *
 *                                                       Final Results                                                       *
 *                                                                                                                           *
 *****************************************************************************************************************************

::    Total SCF energy                                 -1.1020623237
      One-electron energy                              -2.2098837335
      Two-electron energy                               0.5786441988
      Nuclear repulsion energy                          0.5291772109
      Kinetic energy (interpolated)                     0.9182792132
      Virial theorem                                    1.2001385939
      Total spin, S(S+1)                                0.0000000000
      Total spin, S                                     0.0000000000
      Max non-diagonal density matrix element           0.0000011406
      Max non-diagonal Fock matrix element              0.0000001903


      All orbitals with orbital energies smaller than  E(LUMO)+0.5 are printed

++    Molecular orbitals:
      -------------------

      Title: SCF orbitals

      Molecular orbitals for symmetry species 1: a  

          Orbital            1         2         3         4    
          Energy           -0.5263    0.1245    0.3283    0.5465
          Occ. No.          2.0000    0.0000    0.0000    0.0000

        1 H1     1s         0.6770   -0.4358   -0.1995    0.4576
        2 H1     *s        -0.0557    0.1660   -0.7182    0.7860
        3 H1     *s        -0.0804   -1.4113    0.9628   -2.0925
        4 H1     *px        0.0085    0.0148   -0.0082    0.0174
        5 H1     *px        0.0224   -0.0059   -0.0026   -0.2789
        6 H1     *py       -0.0000   -0.0000   -0.0000    0.0000
        7 H1     *py       -0.0000    0.0000    0.0000   -0.0000
        8 H1     *pz       -0.0000   -0.0000    0.0000    0.0000
        9 H1     *pz       -0.0000    0.0000   -0.0000   -0.0000
       10 H1     *d2-      -0.0000   -0.0000   -0.0000    0.0000
       11 H1     *d1-      -0.0000   -0.0000    0.0000    0.0000
       12 H1     *d0       -0.0011   -0.0017   -0.0043   -0.0010
       13 H1     *d1+      -0.0000   -0.0000    0.0000    0.0000
       14 H1     *d2+       0.0019    0.0030    0.0075    0.0017
       15 H2     1s         0.6770    0.4358   -0.1995   -0.4576
       16 H2     *s        -0.0557   -0.1660   -0.7182   -0.7860
       17 H2     *s        -0.0804    1.4113    0.9628    2.0925
       18 H2     *px       -0.0085    0.0148    0.0082    0.0174
       19 H2     *px       -0.0224   -0.0059    0.0026   -0.2789
       20 H2     *py       -0.0000   -0.0000   -0.0000    0.0000
       21 H2     *py        0.0000    0.0000   -0.0000   -0.0000
       22 H2     *pz       -0.0000    0.0000    0.0000    0.0000
       23 H2     *pz        0.0000   -0.0000   -0.0000   -0.0000
       24 H2     *d2-      -0.0000    0.0000   -0.0000    0.0000
       25 H2     *d1-       0.0000    0.0000    0.0000   -0.0000
       26 H2     *d0       -0.0011    0.0017   -0.0043    0.0010
       27 H2     *d1+      -0.0000   -0.0000   -0.0000   -0.0000
       28 H2     *d2+       0.0019   -0.0030    0.0075   -0.0017
--


++    Molecular charges:
      ------------------

      Mulliken charges per centre and basis function type
      ---------------------------------------------------

                H1      H2    
      1s       1.2134  1.2134
      *s      -0.2307 -0.2307
      *px      0.0168  0.0168
      *pz      0.0000  0.0000
      *py      0.0000  0.0000
      *d2+     0.0004  0.0004
      *d1+     0.0000 -0.0000
      *d0      0.0001  0.0001
      *d1-     0.0000  0.0000
      *d2-     0.0000  0.0000
      Total    1.0000  1.0000

      N-E      0.0000 -0.0000

      Total electronic charge=    2.000000

      Total            charge=   -0.000000
--


++    Molecular properties:
      ---------------------

      Charge (e):
                      =   -0.0000
      Dipole Moment (Debye):
      Origin of the operator (Ang)=    0.0000    0.0000    0.0000
                   X= -1.5803E-14               Y=  1.2877E-17               Z=  4.4026E-16           Total=  1.5809E-14
      Quadrupole Moment (Debye*Ang):
      Origin of the operator (Ang)=    0.5000    0.0000    0.0000
                  XX= -1.4629E+00              XY= -2.3918E-16              XZ= -1.0693E-16              YY= -2.4862E+00
                  YZ= -1.1086E-16              ZZ= -2.4862E+00
      In traceless form (Debye*Ang)
                  XX=  1.0233E+00              XY= -3.5877E-16              XZ= -1.6040E-16              YY= -5.1167E-01
                  YZ= -1.6629E-16              ZZ= -5.1167E-01
--


      Input file to MOLDEN was generated!

 ###############################################################################
 ###############################################################################
 ###                                                                         ###
 ###                                                                         ###
 ###    WARNING: RunFile label nBas                                          ###
 ###    was used       59 times                                              ###
 ###                                                                         ###
 ###                                                                         ###
 ###############################################################################
 ###############################################################################
--- Stop Module: scf at Wed Apr 24 11:56:35 2024 /rc=_RC_ALL_IS_WELL_ ---
*** files: test.scf.molden test.ScfOrb xmldump
    saved to directory /home/kenya/molcas_test/00

.##################.
.# Happy landing! #.
.##################.

    Timing: Wall=0.83 User=0.64 System=0.16
