   This run of MOLCAS is using the pymolcas driver

                             OPE
                             OPE          NMOL  CASOP  ENMOLC A   SO
                 OPE        NMOLC        AS  OP EN  MO LC     AS  OP
                OPENM       OL CA        SO  PE NM  OL CA     SOP EN
                OP EN      MO   LC       AS  OP ENMOL  CASO   PENMOL
                OP  EN     MO   LC       AS  OP EN     MO     LC ASO
               OP   E  NMOL  C  AS       OP  EN MO     LC     AS  OP
               OP  E   NMO   LC AS        OPEN  MO     LCASOP EN   M
               O  PEN   MO  LCA  SO
            OPE   NMO   L   CAS    OP
        OPENMOL  CASOP     ENMOL   CASOPE
     OPENMOLCA   SOPENMOLCASOPEN   MOLCASOPE
    OPENMOLCAS   OP           EN   MOL    CAS
    OPENMOLCAS       OP  ENM        O     LCA
    OPENMOLCAS    OPEN  MOLCASO     P  E  NMO
    OPENMOLCAS     OP               E  N  MOL
    OPENMOLCA   SO           PENM   O  L  CAS    OPEN    MO    LCAS
    OPENMOLCA   SOP           ENM   O  L  CAS   OP  EN  MOLC  AS   O
    OPENMOLCA   SOPE           NM      O  LCA   S      OP  EN MO
    OPENMOLC                AS         O  PEN   M      OL  CA  SOPE
    OPENMO        LCASOPE  NMOL        C  ASO   P      ENMOLC     AS
    OPE     NMO      LCA  SO     P     E   NM   OL  CA SO  PE N   MO
          OPENMOLCA            SOPE   NMO        LCAS  O    P  ENMO
     OPENMOLCASOPENMOLCASOPENMOLCASOPENMOLCA
        OPENMOLCASOPENMOLCASOPENMOLCASOPE
            OPENMOLCASOPENMOLCASOPENM
               OPENMOLCASOPENMOLCA        version: 24.02
                   OPENMOLCASO
                       OPE                tag: 428-g03afa2e9a

 OpenMolcas is free software; you can redistribute it and/or modify it
 under the terms of the GNU Lesser General Public License version 2.1.
 OpenMolcas is distributed in the hope that it will be useful, but it
 is provided "as is" and without any express or implied warranties.
 For more details see the full text of the license in the file
 LICENSE or in <http://www.gnu.org/licenses/>.

                 Copyright (C) The OpenMolcas Authors
           For the author list and the recommended citation,
                   consult the file CONTRIBUTORS.md

           *************************************************
           * pymolcas version py2.28                       *
           *   build c4a6d18ded8cb6cad61d2372a9abd97c      *
           *   (after the EMIL interpreter by V. Veryazov) *
           *************************************************

configuration info
------------------
Host name: DESKTOP-ET1S6F4 (Linux)
C Compiler ID: GNU
C flags: -std=gnu99 -fopenmp
Fortran Compiler ID: GNU
Fortran flags: -fno-aggressive-loop-optimizations -cpp -fdefault-integer-8 -fopenmp
Definitions: _WARNING_WORKAROUND_;_MOLCAS_;_I8_;_LINUX_
Parallel: OFF (GA=OFF)


   ----------------------------------------------------------------------
  |
  |           Project: test
  |    Submitted from: /home/kenya/molcas_test/00
  |      Scratch area: /tmp/test
  |   Save outputs to: /home/kenya/molcas_test/00
  |            Molcas: /home/kenya/OpenMolcas/builds/gnu_dev_omp
  |
  | Scratch area is empty
  |
  |    MOLCAS_DRIVER = /home/kenya/OpenMolcas/builds/gnu_dev_omp/pymolcas
  |    MOLCAS_NPROCS = 1
  |    MOLCAS_SOURCE = /home/kenya/OpenMolcas
  | MOLCAS_STRUCTURE = 0
  |
   ----------------------------------------------------------------------

++ ---------   Input file   ---------

&GATEWAY
  Coord = 2
  Angstrom
  H 0.0 0.0 0.0
  H 1.0 0.0 0.0
  Basis = cc-pVDZ
  Group = C1
  NoCD

&SEWARD

&SCF

-- ----------------------------------

--- Start Module: gateway at Tue Apr 23 15:46:47 2024 ---

()()()()()()()()()()()()()()()()()()()()()()()()()()()()()()()()()()()()()()()()()()()()()()()()()()

                                              &GATEWAY

                                   only a single process is used
                       available to each process: 2.0 GB of memory, 1 thread
                                            pid: 151058
()()()()()()()()()()()()()()()()()()()()()()()()()()()()()()()()()()()()()()()()()()()()()()()()()()


++    Symmetry information:
      ---------------------

                    Character Table for C1 

                             E  
                    a        1  x, y, xy, Rz, z, xz, Ry, yz, Rx, I
--


++    Basis set information:
      ----------------------


      Basis set label: H.CC-PVDZ.........

      Electronic valence basis set:
      ------------------
      Associated Effective Charge   1.000000 au
      Associated Actual Charge      1.000000 au
      Nuclear Model: Point charge

      Shell  nPrim  nBasis  Cartesian Spherical Contaminant
         s       4       2        X                  
         p       1       1        X                  
--


++    Molecular structure info:
      -------------------------

                    ************************************************ 
                    **** Cartesian Coordinates / Bohr, Angstrom **** 
                    ************************************************ 

     Center  Label                x              y              z                     x              y              z
        1      H1               0.000000       0.000000       0.000000              0.000000       0.000000       0.000000
        2      H2               1.889726       0.000000       0.000000              1.000000       0.000000       0.000000
--


            Nuclear Potential Energy              0.52917721 au

--- Stop Module: gateway at Tue Apr 23 15:46:47 2024 /rc=_RC_ALL_IS_WELL_ ---
*** files: xmldump
    saved to directory /home/kenya/molcas_test/00

--- Start Module: seward at Tue Apr 23 15:46:47 2024 ---

()()()()()()()()()()()()()()()()()()()()()()()()()()()()()()()()()()()()()()()()()()()()()()()()()()

                                              &SEWARD

                                   only a single process is used
                       available to each process: 2.0 GB of memory, 1 thread
                                            pid: 151061
()()()()()()()()()()()()()()()()()()()()()()()()()()()()()()()()()()()()()()()()()()()()()()()()()()

               SEWARD will generate:
                  Multipole Moment integrals up to order  2
                  Kinetic Energy integrals
                  Nuclear Attraction integrals (point charge)
                  One-Electron Hamiltonian integrals
                  Velocity integrals
                  Orbital angular momentum around ( 0.9449  0.0000  0.0000 )
                  Velocity quadrupole around ( 0.9449  0.0000  0.0000 )
                  Two-Electron Repulsion integrals

                   Integrals are discarded if absolute value <: 1.00E-14
                   Integral cutoff threshold is set to       <: 1.00E-16

            Nuclear Potential Energy              0.52917721 au


      Basis set specifications :
      Symmetry species         a  
      Basis functions           10


      Input file to MOLDEN was generated!

--- Stop Module: seward at Tue Apr 23 15:46:47 2024 /rc=_RC_ALL_IS_WELL_ ---
*** files: test.GssOrb test.guessorb.molden xmldump
    saved to directory /home/kenya/molcas_test/00

*** symbolic link created: INPORB -> test.GssOrb
--- Start Module: scf at Tue Apr 23 15:46:47 2024 ---

()()()()()()()()()()()()()()()()()()()()()()()()()()()()()()()()()()()()()()()()()()()()()()()()()()

                                                &SCF

                                   only a single process is used
                       available to each process: 2.0 GB of memory, 1 thread
                                            pid: 151066
()()()()()()()()()()()()()()()()()()()()()()()()()()()()()()()()()()()()()()()()()()()()()()()()()()

++    Input section:
      --------------

      Header of the integral files:
      
       Integrals generated by Gateway/Seward, Tue Apr 23 15:46:47 2024


      Cartesian coordinates in Angstrom:
      -----------------------------------------------------
      No.  Label        X            Y            Z        
      -----------------------------------------------------
       1   H1         0.00000000   0.00000000   0.00000000
       2   H2         1.00000000   0.00000000   0.00000000
      -----------------------------------------------------
      Nuclear repulsion energy =    0.52917721
--

++    Orbital specifications:
      -----------------------

      Symmetry species               1
                                     a
      Frozen orbitals                0
      Occupied orbitals              1
      Secondary orbitals             9
      Deleted orbitals               0
      Total number of orbitals      10
      Number of basis functions     10
--

      Molecular charge                           0.000

++    Optimization specifications:
      ----------------------------

      SCF Algorithm: Conventional
      Minimized density differences are used
      Number of density matrices in core                 5
      Maximum number of NDDO SCF iterations            400
      Maximum number of HF SCF iterations              400
      Threshold for SCF energy change             1.00E-09
      Threshold for density matrix                1.00E-04
      Threshold for Fock matrix                   1.50E-04
      Threshold for linear dependence             1.00E-09
      Threshold at which DIIS is turned on        1.50E-01
      Maximum depth in the DIIS procedure                5
      Maximum depth in the BFGS Hessian update          30
      Threshold at which QNR/C2DIIS is turned on  7.50E-02
      Threshold for Norm(delta) (QNR/C2DIIS)      1.00E-03
      All orbitals punched on: SCFORB
--

      Input vectors read from INPORB
      Orbital file label: *Guess orbitals


++ Convergence information
                                   SCF        iterations: Energy and convergence statistics

Iter     Tot. SCF        One-elec.       Two-elec.     Energy      Max Dij or  Max Fij      DNorm      TNorm      AccCon     Time
         Energy          Energy          Energy        Change      Delta Norm                                                in Sec.
   1    -1.095929580    -2.194098196     0.568991404   0.00E+00    5.58E-02*   6.13E-02*    2.11E+00   3.10E+00   None         0.
   2    -1.100059642    -2.207272745     0.578035891  -4.13E-03*   8.45E-03*   9.31E-03*    9.35E-02   3.12E+00   EDIIS        0.
   3    -1.100151544    -2.208468490     0.579139734  -9.19E-05*   2.86E-04*   1.69E-03*    3.58E-03   3.12E+00   c2DIIS       0.
   4    -1.100153763    -2.208591955     0.579260981  -2.22E-06*   2.65E-05    2.80E-05     6.06E-05   3.12E+00   QNRc2DIIS    0.
   5    -1.100153765    -2.208577686     0.579246710  -1.80E-09*   6.06E-06    5.13E-06     1.22E-06   3.12E+00   QNRc2DIIS    0.
   6    -1.100153765    -2.208574526     0.579243550  -6.60E-11    7.41E-08    1.35E-07     4.79E-07   3.12E+00   QNRc2DIIS    0.

       Convergence after   6 Macro Iterations
--

 *****************************************************************************************************************************
 *                                                                                                                           *
 *                                             SCF/KS-DFT Program, Final results                                             *
 *                                                                                                                           *
 *                                                                                                                           *
 *                                                                                                                           *
 *                                                       Final Results                                                       *
 *                                                                                                                           *
 *****************************************************************************************************************************

::    Total SCF energy                                 -1.1001537649
      One-electron energy                              -2.2085745256
      Two-electron energy                               0.5792435498
      Nuclear repulsion energy                          0.5291772109
      Kinetic energy (interpolated)                     0.9097999928
      Virial theorem                                    1.2092259547
      Total spin, S(S+1)                                0.0000000000
      Total spin, S                                     0.0000000000
      Max non-diagonal density matrix element           0.0000001445
      Max non-diagonal Fock matrix element              0.0000000244


      All orbitals with orbital energies smaller than  E(LUMO)+0.5 are printed

++    Molecular orbitals:
      -------------------

      Title: SCF orbitals

      Molecular orbitals for symmetry species 1: a  

          Orbital            1         2         3    
          Energy           -0.5250    0.1436    0.5396
          Occ. No.          2.0000    0.0000    0.0000

        1 H1     1s         0.6383   -0.3435   -1.3242
        2 H1     *s        -0.0897   -1.1896    1.3999
        3 H1     *px        0.0211    0.0007   -0.0580
        4 H1     *py       -0.0000   -0.0000    0.0000
        5 H1     *pz        0.0000    0.0000    0.0000
        6 H2     1s         0.6383    0.3435   -1.3242
        7 H2     *s        -0.0897    1.1896    1.3999
        8 H2     *px       -0.0211    0.0007    0.0580
        9 H2     *py       -0.0000    0.0000    0.0000
       10 H2     *pz        0.0000    0.0000    0.0000
--


++    Molecular charges:
      ------------------

      Mulliken charges per centre and basis function type
      ---------------------------------------------------

                H1      H2    
      1s       1.1439  1.1439
      *s      -0.1538 -0.1538
      *px      0.0099  0.0099
      *pz      0.0000  0.0000
      *py      0.0000  0.0000
      Total    1.0000  1.0000

      N-E     -0.0000 -0.0000

      Total electronic charge=    2.000000

      Total            charge=   -0.000000
--


++    Molecular properties:
      ---------------------

      Charge (e):
                      =   -0.0000
      Dipole Moment (Debye):
      Origin of the operator (Ang)=    0.0000    0.0000    0.0000
                   X= -5.6438E-16               Y=  2.3567E-16               Z=  0.0000E+00           Total=  6.1161E-16
      Quadrupole Moment (Debye*Ang):
      Origin of the operator (Ang)=    0.5000    0.0000    0.0000
                  XX= -1.5037E+00              XY=  4.4935E-18              XZ=  0.0000E+00              YY= -2.4218E+00
                  YZ=  0.0000E+00              ZZ= -2.4218E+00
      In traceless form (Debye*Ang)
                  XX=  9.1813E-01              XY=  6.7402E-18              XZ=  0.0000E+00              YY= -4.5907E-01
                  YZ=  0.0000E+00              ZZ= -4.5907E-01
--


      Input file to MOLDEN was generated!

 ###############################################################################
 ###############################################################################
 ###                                                                         ###
 ###                                                                         ###
 ###    WARNING: RunFile label nBas                                          ###
 ###    was used       60 times                                              ###
 ###                                                                         ###
 ###                                                                         ###
 ###############################################################################
 ###############################################################################
--- Stop Module: scf at Tue Apr 23 15:46:48 2024 /rc=_RC_ALL_IS_WELL_ ---
*** files: test.scf.molden test.ScfOrb xmldump
    saved to directory /home/kenya/molcas_test/00

.##################.
.# Happy landing! #.
.##################.

    Timing: Wall=0.80 User=0.67 System=0.10
