[Molden Format]
[N_Atoms]
                    2
[Atoms] (AU)
H1          1      1           0.00000000      0.00000000      0.00000000
H2          2      1           1.88972612      0.00000000      0.00000000
[5D]
[Charge] (Mulliken)
   1.5765166949677223E-014
  -2.0872192862952943E-014
[GTO] (AU)
   1
   s   5
  3.387000000E+01  6.067999217E-03
  5.095000000E+00  4.530799416E-02
  1.159000000E+00  2.028219738E-01
  3.258000000E-01  5.039029350E-01
  1.027000000E-01  3.834209505E-01
   s   1
  3.258000000E-01  1.000000000E+00
   s   1
  1.027000000E-01  1.000000000E+00
   p   1
  1.407000000E+00  1.000000000E+00
   p   1
  3.880000000E-01  1.000000000E+00
   d   1
  1.057000000E+00  1.000000000E+00
 
   2
   s   5
  3.387000000E+01  6.067999217E-03
  5.095000000E+00  4.530799416E-02
  1.159000000E+00  2.028219738E-01
  3.258000000E-01  5.039029350E-01
  1.027000000E-01  3.834209505E-01
   s   1
  3.258000000E-01  1.000000000E+00
   s   1
  1.027000000E-01  1.000000000E+00
   p   1
  1.407000000E+00  1.000000000E+00
   p   1
  3.880000000E-01  1.000000000E+00
   d   1
  1.057000000E+00  1.000000000E+00
 
[MO]
Sym=     1a  
Ene=    -0.5263
Spin= Alpha
Occup=    2.00000
   1         0.67698262
   2        -0.05565365
   3        -0.08044954
   4         0.00847778
   5        -0.00000000
   6        -0.00000000
   7         0.02242755
   8        -0.00000000
   9        -0.00000000
  10        -0.00111759
  11        -0.00000000
  12        -0.00000000
  13         0.00193572
  14        -0.00000000
  15         0.67698262
  16        -0.05565365
  17        -0.08044954
  18        -0.00847778
  19        -0.00000000
  20        -0.00000000
  21        -0.02242755
  22         0.00000000
  23         0.00000000
  24        -0.00111759
  25        -0.00000000
  26         0.00000000
  27         0.00193572
  28        -0.00000000
Sym=     2a  
Ene=     0.1245
Spin= Alpha
Occup=    0.00000
   1        -0.43582734
   2         0.16596835
   3        -1.41134951
   4         0.01478674
   5        -0.00000000
   6        -0.00000000
   7        -0.00585032
   8         0.00000000
   9         0.00000000
  10        -0.00171031
  11        -0.00000000
  12        -0.00000000
  13         0.00296234
  14        -0.00000000
  15         0.43582734
  16        -0.16596835
  17         1.41134951
  18         0.01478674
  19        -0.00000000
  20         0.00000000
  21        -0.00585032
  22         0.00000000
  23        -0.00000000
  24         0.00171031
  25        -0.00000000
  26         0.00000000
  27        -0.00296234
  28         0.00000000
Sym=     3a  
Ene=     0.3283
Spin= Alpha
Occup=    0.00000
   1        -0.19946510
   2        -0.71819305
   3         0.96280597
   4        -0.00818953
   5        -0.00000000
   6         0.00000000
   7        -0.00259927
   8         0.00000000
   9        -0.00000000
  10        -0.00431427
  11         0.00000000
  12         0.00000000
  13         0.00747254
  14        -0.00000000
  15        -0.19946510
  16        -0.71819305
  17         0.96280597
  18         0.00818953
  19        -0.00000000
  20         0.00000000
  21         0.00259927
  22        -0.00000000
  23        -0.00000000
  24        -0.00431427
  25        -0.00000000
  26         0.00000000
  27         0.00747254
  28        -0.00000000
Sym=     4a  
Ene=     0.5465
Spin= Alpha
Occup=    0.00000
   1         0.45757972
   2         0.78601526
   3        -2.09248701
   4         0.01740124
   5         0.00000000
   6         0.00000000
   7        -0.27885390
   8        -0.00000000
   9        -0.00000000
  10        -0.00098423
  11         0.00000000
  12         0.00000000
  13         0.00170474
  14         0.00000000
  15        -0.45757972
  16        -0.78601526
  17         2.09248701
  18         0.01740124
  19         0.00000000
  20         0.00000000
  21        -0.27885390
  22        -0.00000000
  23        -0.00000000
  24         0.00098423
  25        -0.00000000
  26        -0.00000000
  27        -0.00170474
  28         0.00000000
Sym=     5a  
Ene=     0.6716
Spin= Alpha
Occup=    0.00000
   1         0.00000000
   2         0.00000000
   3        -0.00000000
   4         0.00000000
   5        -0.06088798
   6         0.00000000
   7         0.00000000
   8         0.61180798
   9         0.00000000
  10        -0.00000000
  11         0.00000000
  12        -0.00000000
  13         0.00000000
  14        -0.01462040
  15         0.00000000
  16        -0.00000000
  17        -0.00000000
  18         0.00000000
  19        -0.06088798
  20         0.00000000
  21         0.00000000
  22         0.61180798
  23        -0.00000000
  24         0.00000000
  25         0.00000000
  26         0.00000000
  27        -0.00000000
  28         0.01462040
Sym=     6a  
Ene=     0.6716
Spin= Alpha
Occup=    0.00000
   1         0.00000000
   2        -0.00000000
   3        -0.00000000
   4        -0.00000000
   5        -0.00000000
   6        -0.06088798
   7         0.00000000
   8        -0.00000000
   9         0.61180798
  10         0.00000000
  11        -0.01462040
  12        -0.00000000
  13        -0.00000000
  14        -0.00000000
  15        -0.00000000
  16        -0.00000000
  17         0.00000000
  18         0.00000000
  19        -0.00000000
  20        -0.06088798
  21        -0.00000000
  22         0.00000000
  23         0.61180798
  24        -0.00000000
  25         0.01462040
  26         0.00000000
  27         0.00000000
  28        -0.00000000
Sym=     7a  
Ene=     1.0077
Spin= Alpha
Occup=    0.00000
   1        -0.08285314
   2         0.64471882
   3        -0.28363974
   4         0.09066191
   5        -0.00000000
   6         0.00000000
   7        -0.81490925
   8         0.00000000
   9        -0.00000000
  10        -0.00171342
  11        -0.00000000
  12         0.00000000
  13         0.00296773
  14         0.00000000
  15        -0.08285314
  16         0.64471882
  17        -0.28363974
  18        -0.09066191
  19         0.00000000
  20        -0.00000000
  21         0.81490925
  22        -0.00000000
  23         0.00000000
  24        -0.00171342
  25        -0.00000000
  26         0.00000000
  27         0.00296773
  28        -0.00000000
Sym=     8a  
Ene=     1.0629
Spin= Alpha
Occup=    0.00000
   1        -0.00000000
   2        -0.00000000
   3         0.00000000
   4        -0.00000000
   5        -0.00000000
   6         0.08977387
   7         0.00000000
   8         0.00000000
   9        -1.08173882
  10         0.00000000
  11        -0.02404738
  12        -0.00000000
  13         0.00000000
  14        -0.00000000
  15         0.00000000
  16        -0.00000000
  17         0.00000000
  18         0.00000000
  19         0.00000000
  20        -0.08977387
  21        -0.00000000
  22        -0.00000000
  23         1.08173882
  24        -0.00000000
  25        -0.02404738
  26         0.00000000
  27        -0.00000000
  28         0.00000000
Sym=     9a  
Ene=     1.0629
Spin= Alpha
Occup=    0.00000
   1         0.00000000
   2         0.00000000
   3        -0.00000000
   4         0.00000000
   5         0.08977387
   6         0.00000000
   7         0.00000000
   8        -1.08173882
   9         0.00000000
  10        -0.00000000
  11        -0.00000000
  12        -0.00000000
  13         0.00000000
  14        -0.02404738
  15         0.00000000
  16        -0.00000000
  17        -0.00000000
  18         0.00000000
  19        -0.08977387
  20         0.00000000
  21         0.00000000
  22         1.08173882
  23        -0.00000000
  24         0.00000000
  25         0.00000000
  26        -0.00000000
  27        -0.00000000
  28        -0.02404738
Sym=    10a  
Ene=     1.4752
Spin= Alpha
Occup=    0.00000
   1         0.03622401
   2         3.96578610
   3         0.62983774
   4        -0.06094340
   5         0.00000000
   6         0.00000000
   7         3.27182943
   8         0.00000000
   9        -0.00000000
  10        -0.10843216
  11        -0.00000000
  12         0.00000000
  13         0.18781002
  14         0.00000000
  15        -0.03622401
  16        -3.96578610
  17        -0.62983774
  18        -0.06094340
  19         0.00000000
  20        -0.00000000
  21         3.27182943
  22        -0.00000000
  23         0.00000000
  24         0.10843216
  25        -0.00000000
  26        -0.00000000
  27        -0.18781002
  28         0.00000000
Sym=    11a  
Ene=     2.5210
Spin= Alpha
Occup=    0.00000
   1        -4.20533702
   2         3.22013859
   3         1.17770528
   4        -0.09193809
   5         0.00000000
   6         0.00000000
   7         0.08043234
   8        -0.00000000
   9        -0.00000000
  10         0.08884048
  11        -0.00000000
  12        -0.00000000
  13        -0.15387623
  14         0.00000000
  15        -4.20533702
  16         3.22013859
  17         1.17770528
  18         0.09193809
  19         0.00000000
  20         0.00000000
  21        -0.08043234
  22         0.00000000
  23        -0.00000000
  24         0.08884048
  25         0.00000000
  26         0.00000000
  27        -0.15387623
  28        -0.00000000
Sym=    12a  
Ene=     2.5961
Spin= Alpha
Occup=    0.00000
   1        -4.77283126
   2         6.09125569
   3         0.95740496
   4         0.10434626
   5        -0.00000000
   6        -0.00000000
   7         1.49119142
   8        -0.00000000
   9         0.00000000
  10        -0.14471728
  11         0.00000000
  12         0.00000000
  13         0.25065769
  14        -0.00000000
  15         4.77283126
  16        -6.09125569
  17        -0.95740496
  18         0.10434626
  19        -0.00000000
  20         0.00000000
  21         1.49119142
  22        -0.00000000
  23        -0.00000000
  24         0.14471728
  25        -0.00000000
  26         0.00000000
  27        -0.25065769
  28         0.00000000
Sym=    13a  
Ene=     3.2067
Spin= Alpha
Occup=    0.00000
   1         0.00000000
   2        -0.00000000
   3        -0.00000000
   4        -0.00000000
   5         0.00000000
   6        -0.00000000
   7         0.00000000
   8        -0.00000000
   9        -0.00000000
  10        -0.00612625
  11        -0.00000000
  12         0.65891888
  13        -0.00353699
  14         0.00000000
  15         0.00000000
  16        -0.00000000
  17        -0.00000000
  18         0.00000000
  19         0.00000000
  20        -0.00000000
  21        -0.00000000
  22         0.00000000
  23        -0.00000000
  24        -0.00612625
  25         0.00000000
  26         0.65891888
  27        -0.00353699
  28         0.00000000
Sym=    14a  
Ene=     3.2067
Spin= Alpha
Occup=    0.00000
   1         0.00000000
   2        -0.00000000
   3        -0.00000000
   4         0.00000000
   5        -0.00000000
   6         0.00000000
   7        -0.00000000
   8        -0.00000000
   9         0.00000000
  10         0.57064049
  11         0.00000000
  12         0.00707399
  13         0.32945944
  14        -0.00000000
  15         0.00000000
  16         0.00000000
  17        -0.00000000
  18        -0.00000000
  19        -0.00000000
  20         0.00000000
  21        -0.00000000
  22         0.00000000
  23         0.00000000
  24         0.57064049
  25        -0.00000000
  26         0.00707399
  27         0.32945944
  28         0.00000000
Sym=    15a  
Ene=     3.2262
Spin= Alpha
Occup=    0.00000
   1         0.00000000
   2        -0.00000000
   3         0.00000000
   4        -0.00000000
   5        -0.33754793
   6         0.00000000
   7        -0.00000000
   8         0.25335977
   9         0.00000000
  10         0.00000000
  11         0.00000000
  12         0.00000000
  13        -0.00000000
  14        -0.53506469
  15        -0.00000000
  16         0.00000000
  17         0.00000000
  18        -0.00000000
  19        -0.33754793
  20         0.00000000
  21        -0.00000000
  22         0.25335977
  23        -0.00000000
  24        -0.00000000
  25         0.00000000
  26         0.00000000
  27         0.00000000
  28         0.53506469
Sym=    16a  
Ene=     3.2262
Spin= Alpha
Occup=    0.00000
   1         0.00000000
   2         0.00000000
   3        -0.00000000
   4        -0.00000000
   5         0.00000000
   6        -0.33754793
   7         0.00000000
   8         0.00000000
   9         0.25335977
  10         0.00000000
  11        -0.53506469
  12        -0.00000000
  13         0.00000000
  14         0.00000000
  15         0.00000000
  16        -0.00000000
  17        -0.00000000
  18         0.00000000
  19         0.00000000
  20        -0.33754793
  21         0.00000000
  22        -0.00000000
  23         0.25335977
  24         0.00000000
  25         0.53506469
  26         0.00000000
  27        -0.00000000
  28        -0.00000000
Sym=    17a  
Ene=     3.4577
Spin= Alpha
Occup=    0.00000
   1        -1.16544648
   2         0.97337814
   3         0.30403044
   4         0.77487326
   5         0.00000000
   6        -0.00000000
   7        -0.53144503
   8         0.00000000
   9         0.00000000
  10        -0.04298634
  11        -0.00000000
  12         0.00000000
  13         0.07445452
  14         0.00000000
  15        -1.16544648
  16         0.97337814
  17         0.30403044
  18        -0.77487326
  19         0.00000000
  20        -0.00000000
  21         0.53144503
  22         0.00000000
  23        -0.00000000
  24        -0.04298634
  25         0.00000000
  26         0.00000000
  27         0.07445452
  28         0.00000000
Sym=    18a  
Ene=     3.8227
Spin= Alpha
Occup=    0.00000
   1         0.00000000
   2        -0.00000000
   3        -0.00000000
   4        -0.00000000
   5        -0.00000000
   6        -0.00000000
   7         0.00000000
   8         0.00000000
   9        -0.00000000
  10        -0.00056166
  11        -0.00000000
  12        -0.76763288
  13        -0.00032428
  14         0.00000000
  15         0.00000000
  16        -0.00000000
  17        -0.00000000
  18        -0.00000000
  19         0.00000000
  20         0.00000000
  21         0.00000000
  22        -0.00000000
  23        -0.00000000
  24         0.00056166
  25         0.00000000
  26         0.76763288
  27         0.00032428
  28        -0.00000000
Sym=    19a  
Ene=     3.8227
Spin= Alpha
Occup=    0.00000
   1        -0.00000000
   2        -0.00000000
   3         0.00000000
   4         0.00000000
   5         0.00000000
   6         0.00000000
   7        -0.00000000
   8        -0.00000000
   9        -0.00000000
  10        -0.66478958
  11        -0.00000000
  12         0.00064855
  13        -0.38381644
  14         0.00000000
  15         0.00000000
  16         0.00000000
  17        -0.00000000
  18         0.00000000
  19         0.00000000
  20         0.00000000
  21        -0.00000000
  22         0.00000000
  23         0.00000000
  24         0.66478958
  25         0.00000000
  26        -0.00064855
  27         0.38381644
  28         0.00000000
Sym=    20a  
Ene=     3.9427
Spin= Alpha
Occup=    0.00000
   1         0.00000000
   2        -0.00000000
   3        -0.00000000
   4         0.00000000
   5         0.00000000
   6         0.82739030
   7        -0.00000000
   8         0.00000000
   9        -0.37035238
  10         0.00000000
  11        -0.28814064
  12        -0.00000000
  13        -0.00000000
  14         0.00000000
  15         0.00000000
  16         0.00000000
  17         0.00000000
  18         0.00000000
  19         0.00000000
  20         0.82739030
  21        -0.00000000
  22        -0.00000000
  23        -0.37035238
  24        -0.00000000
  25         0.28814064
  26         0.00000000
  27         0.00000000
  28         0.00000000
Sym=    21a  
Ene=     3.9427
Spin= Alpha
Occup=    0.00000
   1         0.00000000
   2        -0.00000000
   3        -0.00000000
   4        -0.00000000
   5         0.82739030
   6         0.00000000
   7        -0.00000000
   8        -0.37035238
   9         0.00000000
  10         0.00000000
  11         0.00000000
  12        -0.00000000
  13        -0.00000000
  14        -0.28814064
  15        -0.00000000
  16         0.00000000
  17         0.00000000
  18        -0.00000000
  19         0.82739030
  20        -0.00000000
  21        -0.00000000
  22        -0.37035238
  23         0.00000000
  24        -0.00000000
  25         0.00000000
  26        -0.00000000
  27         0.00000000
  28         0.28814064
Sym=    22a  
Ene=     4.0030
Spin= Alpha
Occup=    0.00000
   1         0.00000000
   2         0.00000000
   3        -0.00000000
   4         0.00000000
   5        -0.85405415
   6        -0.00000000
   7         0.00000000
   8         0.79506415
   9         0.00000000
  10        -0.00000000
  11        -0.00000000
  12        -0.00000000
  13         0.00000000
  14         0.35526058
  15         0.00000000
  16        -0.00000000
  17        -0.00000000
  18         0.00000000
  19         0.85405415
  20        -0.00000000
  21         0.00000000
  22        -0.79506415
  23         0.00000000
  24         0.00000000
  25        -0.00000000
  26        -0.00000000
  27        -0.00000000
  28         0.35526058
Sym=    23a  
Ene=     4.0030
Spin= Alpha
Occup=    0.00000
   1         0.00000000
   2         0.00000000
   3         0.00000000
   4        -0.00000000
   5         0.00000000
   6        -0.85405415
   7         0.00000000
   8         0.00000000
   9         0.79506415
  10        -0.00000000
  11         0.35526058
  12        -0.00000000
  13         0.00000000
  14         0.00000000
  15        -0.00000000
  16        -0.00000000
  17        -0.00000000
  18        -0.00000000
  19         0.00000000
  20         0.85405415
  21         0.00000000
  22        -0.00000000
  23        -0.79506415
  24         0.00000000
  25         0.35526058
  26         0.00000000
  27        -0.00000000
  28         0.00000000
Sym=    24a  
Ene=     4.0930
Spin= Alpha
Occup=    0.00000
   1        -0.31617290
   2        -2.89479705
   3        -0.23048698
   4         0.41095447
   5         0.00000000
   6        -0.00000000
   7        -2.47262898
   8        -0.00000000
   9         0.00000000
  10         0.46806191
  11         0.00000000
  12        -0.00000000
  13        -0.81070701
  14         0.00000000
  15         0.31617290
  16         2.89479705
  17         0.23048698
  18         0.41095447
  19         0.00000000
  20         0.00000000
  21        -2.47262898
  22         0.00000000
  23        -0.00000000
  24        -0.46806191
  25         0.00000000
  26        -0.00000000
  27         0.81070701
  28        -0.00000000
Sym=    25a  
Ene=     4.9100
Spin= Alpha
Occup=    0.00000
   1         0.00000000
   2         0.00000000
   3        -0.00000000
   4         0.00000000
   5         0.34084028
   6        -0.00000000
   7         0.00000000
   8         0.31000837
   9         0.00000000
  10        -0.00000000
  11        -0.00000000
  12        -0.00000000
  13         0.00000000
  14         1.02875428
  15         0.00000000
  16        -0.00000000
  17        -0.00000000
  18         0.00000000
  19        -0.34084028
  20        -0.00000000
  21         0.00000000
  22        -0.31000837
  23         0.00000000
  24         0.00000000
  25        -0.00000000
  26        -0.00000000
  27        -0.00000000
  28         1.02875428
Sym=    26a  
Ene=     4.9100
Spin= Alpha
Occup=    0.00000
   1         0.00000000
   2         0.00000000
   3        -0.00000000
   4         0.00000000
   5         0.00000000
   6         0.34084028
   7         0.00000000
   8         0.00000000
   9         0.31000837
  10        -0.00000000
  11         1.02875428
  12        -0.00000000
  13         0.00000000
  14         0.00000000
  15         0.00000000
  16        -0.00000000
  17         0.00000000
  18        -0.00000000
  19         0.00000000
  20        -0.34084028
  21         0.00000000
  22        -0.00000000
  23        -0.31000837
  24         0.00000000
  25         1.02875428
  26         0.00000000
  27        -0.00000000
  28        -0.00000000
Sym=    27a  
Ene=     4.9766
Spin= Alpha
Occup=    0.00000
   1        -2.53261975
   2         1.47444417
   3         0.97166456
   4        -0.57137785
   5         0.00000000
   6        -0.00000000
   7         0.55899284
   8        -0.00000000
   9        -0.00000000
  10        -0.39072914
  11        -0.00000000
  12         0.00000000
  13         0.67676272
  14         0.00000000
  15        -2.53261975
  16         1.47444417
  17         0.97166456
  18         0.57137785
  19         0.00000000
  20        -0.00000000
  21        -0.55899284
  22         0.00000000
  23         0.00000000
  24        -0.39072914
  25         0.00000000
  26         0.00000000
  27         0.67676272
  28        -0.00000000
Sym=    28a  
Ene=     6.2254
Spin= Alpha
Occup=    0.00000
   1         0.51971018
   2         2.93286769
   3        -0.52799659
   4         1.17387947
   5        -0.00000000
   6         0.00000000
   7         1.68215382
   8         0.00000000
   9        -0.00000000
  10        -0.59731407
  11        -0.00000000
  12        -0.00000000
  13         1.03457832
  14        -0.00000000
  15        -0.51971018
  16        -2.93286769
  17         0.52799659
  18         1.17387947
  19         0.00000000
  20        -0.00000000
  21         1.68215382
  22        -0.00000000
  23         0.00000000
  24         0.59731407
  25        -0.00000000
  26        -0.00000000
  27        -1.03457832
  28         0.00000000
