[Molden Format]
[N_Atoms]
                   14
[Atoms] (AU)
C1          1      6         -13.27149475      4.40853698     -0.03143757
C2          2      6         -11.04991702      5.54885067      0.11022373
H3          3      1         -15.01181359      5.44531633      0.11232892
H4          4      1         -13.42881488      2.39767151     -0.29645547
C5          5      6          -8.61743807      4.24535426     -0.07158328
H6          6      1         -10.97639273      7.56737941      0.37642637
C7          7      6          -6.39024282      5.39780513      0.07164980
H8          8      1          -8.68613992      2.22568868     -0.33795317
C9          9      6          -3.95776348      4.09431222     -0.11017562
H10        10      1          -6.32154175      7.41747675      0.33797372
C11        11      6          -1.73618662      5.23463156      0.03145489
H12        12      1          -4.03128635      2.07578007     -0.37635278
H13        13      1          -1.57886991      7.24555605      0.29602666
H14        14      1           0.00413380      4.19782917     -0.11212621
[Charge] (Mulliken)
 -0.41258362066415000     
 -0.13314342380104360     
  0.18230490100844976     
  0.17701474308832443     
 -0.18802550596109135     
  0.18753173921183974     
 -0.18802556874021192     
  0.18690116284501912     
 -0.13314339916142170     
  0.18690114455372941     
 -0.41258360290994922     
  0.18753176764565871     
  0.17701474641205139     
  0.18230491647178970     
[GTO] (AU)
   1
   s   6
  3.047524880E+03  1.834737132E-03
  4.573695180E+02  1.403732281E-02
  1.039486850E+02  6.884262227E-02
  2.921015530E+01  2.321844432E-01
  9.286662960E+00  4.679413484E-01
  3.163926960E+00  3.623119853E-01
   s   3
  7.868272350E+00 -1.193324198E-01
  1.881288540E+00 -1.608541517E-01
  5.442492580E-01  1.143456438E+00
   s   1
  1.687144782E-01  1.000000000E+00
   p   3
  7.868272350E+00  6.899906659E-02
  1.881288540E+00  3.164239610E-01
  5.442492580E-01  7.443082909E-01
   p   1
  1.687144782E-01  1.000000000E+00
   d   1
  8.000000000E-01  1.000000000E+00
 
   2
   s   6
  3.047524880E+03  1.834737132E-03
  4.573695180E+02  1.403732281E-02
  1.039486850E+02  6.884262227E-02
  2.921015530E+01  2.321844432E-01
  9.286662960E+00  4.679413484E-01
  3.163926960E+00  3.623119853E-01
   s   3
  7.868272350E+00 -1.193324198E-01
  1.881288540E+00 -1.608541517E-01
  5.442492580E-01  1.143456438E+00
   s   1
  1.687144782E-01  1.000000000E+00
   p   3
  7.868272350E+00  6.899906659E-02
  1.881288540E+00  3.164239610E-01
  5.442492580E-01  7.443082909E-01
   p   1
  1.687144782E-01  1.000000000E+00
   d   1
  8.000000000E-01  1.000000000E+00
 
   3
   s   3
  1.873113696E+01  3.349460434E-02
  2.825394365E+00  2.347269535E-01
  6.401216923E-01  8.137573261E-01
   s   1
  1.612777588E-01  1.000000000E+00
 
   4
   s   3
  1.873113696E+01  3.349460434E-02
  2.825394365E+00  2.347269535E-01
  6.401216923E-01  8.137573261E-01
   s   1
  1.612777588E-01  1.000000000E+00
 
   5
   s   6
  3.047524880E+03  1.834737132E-03
  4.573695180E+02  1.403732281E-02
  1.039486850E+02  6.884262227E-02
  2.921015530E+01  2.321844432E-01
  9.286662960E+00  4.679413484E-01
  3.163926960E+00  3.623119853E-01
   s   3
  7.868272350E+00 -1.193324198E-01
  1.881288540E+00 -1.608541517E-01
  5.442492580E-01  1.143456438E+00
   s   1
  1.687144782E-01  1.000000000E+00
   p   3
  7.868272350E+00  6.899906659E-02
  1.881288540E+00  3.164239610E-01
  5.442492580E-01  7.443082909E-01
   p   1
  1.687144782E-01  1.000000000E+00
   d   1
  8.000000000E-01  1.000000000E+00
 
   6
   s   3
  1.873113696E+01  3.349460434E-02
  2.825394365E+00  2.347269535E-01
  6.401216923E-01  8.137573261E-01
   s   1
  1.612777588E-01  1.000000000E+00
 
   7
   s   6
  3.047524880E+03  1.834737132E-03
  4.573695180E+02  1.403732281E-02
  1.039486850E+02  6.884262227E-02
  2.921015530E+01  2.321844432E-01
  9.286662960E+00  4.679413484E-01
  3.163926960E+00  3.623119853E-01
   s   3
  7.868272350E+00 -1.193324198E-01
  1.881288540E+00 -1.608541517E-01
  5.442492580E-01  1.143456438E+00
   s   1
  1.687144782E-01  1.000000000E+00
   p   3
  7.868272350E+00  6.899906659E-02
  1.881288540E+00  3.164239610E-01
  5.442492580E-01  7.443082909E-01
   p   1
  1.687144782E-01  1.000000000E+00
   d   1
  8.000000000E-01  1.000000000E+00
 
   8
   s   3
  1.873113696E+01  3.349460434E-02
  2.825394365E+00  2.347269535E-01
  6.401216923E-01  8.137573261E-01
   s   1
  1.612777588E-01  1.000000000E+00
 
   9
   s   6
  3.047524880E+03  1.834737132E-03
  4.573695180E+02  1.403732281E-02
  1.039486850E+02  6.884262227E-02
  2.921015530E+01  2.321844432E-01
  9.286662960E+00  4.679413484E-01
  3.163926960E+00  3.623119853E-01
   s   3
  7.868272350E+00 -1.193324198E-01
  1.881288540E+00 -1.608541517E-01
  5.442492580E-01  1.143456438E+00
   s   1
  1.687144782E-01  1.000000000E+00
   p   3
  7.868272350E+00  6.899906659E-02
  1.881288540E+00  3.164239610E-01
  5.442492580E-01  7.443082909E-01
   p   1
  1.687144782E-01  1.000000000E+00
   d   1
  8.000000000E-01  1.000000000E+00
 
  10
   s   3
  1.873113696E+01  3.349460434E-02
  2.825394365E+00  2.347269535E-01
  6.401216923E-01  8.137573261E-01
   s   1
  1.612777588E-01  1.000000000E+00
 
  11
   s   6
  3.047524880E+03  1.834737132E-03
  4.573695180E+02  1.403732281E-02
  1.039486850E+02  6.884262227E-02
  2.921015530E+01  2.321844432E-01
  9.286662960E+00  4.679413484E-01
  3.163926960E+00  3.623119853E-01
   s   3
  7.868272350E+00 -1.193324198E-01
  1.881288540E+00 -1.608541517E-01
  5.442492580E-01  1.143456438E+00
   s   1
  1.687144782E-01  1.000000000E+00
   p   3
  7.868272350E+00  6.899906659E-02
  1.881288540E+00  3.164239610E-01
  5.442492580E-01  7.443082909E-01
   p   1
  1.687144782E-01  1.000000000E+00
   d   1
  8.000000000E-01  1.000000000E+00
 
  12
   s   3
  1.873113696E+01  3.349460434E-02
  2.825394365E+00  2.347269535E-01
  6.401216923E-01  8.137573261E-01
   s   1
  1.612777588E-01  1.000000000E+00
 
  13
   s   3
  1.873113696E+01  3.349460434E-02
  2.825394365E+00  2.347269535E-01
  6.401216923E-01  8.137573261E-01
   s   1
  1.612777588E-01  1.000000000E+00
 
  14
   s   3
  1.873113696E+01  3.349460434E-02
  2.825394365E+00  2.347269535E-01
  6.401216923E-01  8.137573261E-01
   s   1
  1.612777588E-01  1.000000000E+00
 
[MO]
Sym=     1a  
Ene=   -11.2350
Spin= Alpha
Occup=    2.00000
   1         0.04047814
   2         0.00085205
   3         0.00238942
   4        -0.00011713
   5        -0.00003644
   6        -0.00000434
   7         0.00125939
   8         0.00017866
   9         0.00001855
  10        -0.00016029
  11        -0.00023293
  12        -0.00016960
  13        -0.00000720
  14        -0.00000099
  15        -0.00000979
  16         0.55530027
  17         0.01540358
  18        -0.00549072
  19         0.00004624
  20        -0.00006175
  21        -0.00000832
  22         0.00087810
  23         0.00072055
  24         0.00009161
  25        -0.00099644
  26        -0.00120707
  27        -0.00141362
  28         0.00017710
  29         0.00002144
  30         0.00003132
  31        -0.00001761
  32         0.00026945
  33        -0.00009483
  34        -0.00008469
  35         0.43045974
  36         0.01182187
  37        -0.00161804
  38        -0.00008427
  39         0.00000742
  40         0.00000132
  41         0.00013399
  42        -0.00053676
  43        -0.00007140
  44        -0.00099789
  45        -0.00112852
  46        -0.00116578
  47         0.00019403
  48         0.00002484
  49         0.00000498
  50        -0.00015097
  51         0.00079435
  52         0.43046196
  53         0.01182193
  54        -0.00161801
  55         0.00008426
  56        -0.00000742
  57        -0.00000132
  58        -0.00013395
  59         0.00053675
  60         0.00007139
  61        -0.00099790
  62        -0.00112853
  63        -0.00116579
  64         0.00019404
  65         0.00002484
  66         0.00000497
  67        -0.00018957
  68         0.00027823
  69         0.55531757
  70         0.01540406
  71        -0.00549094
  72        -0.00004624
  73         0.00006175
  74         0.00000833
  75        -0.00087808
  76        -0.00072058
  77        -0.00009159
  78        -0.00099647
  79        -0.00120710
  80        -0.00141367
  81         0.00017710
  82         0.00002144
  83         0.00003131
  84        -0.00018957
  85         0.00027824
  86         0.04047948
  87         0.00085208
  88         0.00238948
  89         0.00011714
  90         0.00003644
  91         0.00000435
  92        -0.00125942
  93        -0.00017866
  94        -0.00001858
  95        -0.00016030
  96        -0.00023293
  97        -0.00016961
  98        -0.00000720
  99        -0.00000099
 100        -0.00000980
 101        -0.00015098
 102         0.00079438
 103        -0.00009483
 104        -0.00008469
 105        -0.00001761
 106         0.00026946
Sym=     2a  
Ene=   -11.2350
Spin= Alpha
Occup=    2.00000
   1        -0.05140519
   2        -0.00118413
   3        -0.00233166
   4         0.00012794
   5         0.00005405
   6         0.00000662
   7        -0.00117099
   8        -0.00005448
   9        -0.00000250
  10         0.00024692
  11         0.00030650
  12         0.00017891
  13         0.00000938
  14         0.00000091
  15         0.00001975
  16        -0.68807952
  17        -0.01916463
  18         0.00861894
  19        -0.00009877
  20         0.00009492
  21         0.00001290
  22         0.00037229
  23        -0.00090373
  24        -0.00012078
  25         0.00111482
  26         0.00135173
  27         0.00168122
  28        -0.00014490
  29        -0.00001649
  30        -0.00005053
  31         0.00000797
  32        -0.00020084
  33         0.00007630
  34         0.00020283
  35        -0.13950079
  36        -0.00402688
  37        -0.00045708
  38        -0.00010172
  39         0.00007402
  40         0.00001018
  41         0.00158773
  42        -0.00024136
  43        -0.00003822
  44         0.00058618
  45         0.00051042
  46         0.00040113
  47        -0.00014536
  48        -0.00002005
  49         0.00001756
  50         0.00009269
  51        -0.00116303
  52         0.13948497
  53         0.00402644
  54         0.00045718
  55        -0.00010173
  56         0.00007402
  57         0.00001018
  58         0.00158775
  59        -0.00024138
  60        -0.00003822
  61        -0.00058615
  62        -0.00051038
  63        -0.00040109
  64         0.00014536
  65         0.00002005
  66        -0.00001756
  67         0.00004511
  68        -0.00017850
  69         0.68806972
  70         0.01916436
  71        -0.00861888
  72        -0.00009877
  73         0.00009491
  74         0.00001292
  75         0.00037232
  76        -0.00090372
  77        -0.00012078
  78        -0.00111480
  79        -0.00135171
  80        -0.00168120
  81         0.00014490
  82         0.00001648
  83         0.00005051
  84        -0.00004511
  85         0.00017848
  86         0.05140456
  87         0.00118412
  88         0.00233162
  89         0.00012794
  90         0.00005405
  91         0.00000663
  92        -0.00117097
  93        -0.00005447
  94        -0.00000254
  95        -0.00024692
  96        -0.00030650
  97        -0.00017891
  98        -0.00000938
  99        -0.00000091
 100        -0.00001976
 101        -0.00009268
 102         0.00116302
 103        -0.00007630
 104        -0.00020283
 105        -0.00000797
 106         0.00020083
Sym=     3a  
Ene=   -11.2340
Spin= Alpha
Occup=    2.00000
   1        -0.03416257
   2        -0.00088769
   3        -0.00144204
   4         0.00006106
   5         0.00005896
   6         0.00000754
   7        -0.00056276
   8        -0.00024047
   9        -0.00002950
  10         0.00022088
  11         0.00021930
  12         0.00008648
  13         0.00000888
  14         0.00000054
  15         0.00002057
  16        -0.42945070
  17        -0.01193309
  18         0.00742548
  19        -0.00011845
  20         0.00011084
  21         0.00001509
  22         0.00080727
  23        -0.00060347
  24        -0.00008288
  25         0.00039584
  26         0.00062434
  27         0.00097161
  28         0.00005366
  29         0.00000977
  30        -0.00005410
  31         0.00002113
  32         0.00005111
  33         0.00001146
  34         0.00001130
  35         0.55678000
  36         0.01533958
  37        -0.00635305
  38        -0.00020354
  39         0.00005029
  40         0.00000746
  41         0.00156741
  42        -0.00051315
  43        -0.00007402
  44        -0.00078334
  45        -0.00110161
  46        -0.00132323
  47        -0.00004061
  48        -0.00000788
  49         0.00003455
  50         0.00000514
  51        -0.00106774
  52         0.55677993
  53         0.01533958
  54        -0.00635302
  55         0.00020354
  56        -0.00005029
  57        -0.00000745
  58        -0.00156739
  59         0.00051314
  60         0.00007403
  61        -0.00078334
  62        -0.00110161
  63        -0.00132323
  64        -0.00004061
  65        -0.00000787
  66         0.00003455
  67        -0.00005522
  68         0.00107234
  69        -0.42944406
  70        -0.01193291
  71         0.00742539
  72         0.00011845
  73        -0.00011083
  74        -0.00001511
  75        -0.00080726
  76         0.00060346
  77         0.00008289
  78         0.00039583
  79         0.00062432
  80         0.00097159
  81         0.00005366
  82         0.00000978
  83        -0.00005410
  84        -0.00005522
  85         0.00107234
  86        -0.03416211
  87        -0.00088768
  88        -0.00144202
  89        -0.00006106
  90        -0.00005896
  91        -0.00000754
  92         0.00056275
  93         0.00024047
  94         0.00002949
  95         0.00022088
  96         0.00021930
  97         0.00008648
  98         0.00000888
  99         0.00000054
 100         0.00002057
 101         0.00000514
 102        -0.00106772
 103         0.00001146
 104         0.00001130
 105         0.00002113
 106         0.00005111
Sym=     4a  
Ene=   -11.2330
Spin= Alpha
Occup=    2.00000
   1         0.01303567
   2         0.00038081
   3         0.00047358
   4        -0.00002713
   5        -0.00003781
   6        -0.00000488
   7         0.00037135
   8        -0.00010135
   9        -0.00001486
  10        -0.00010982
  11        -0.00011942
  12        -0.00001669
  13        -0.00003723
  14        -0.00000448
  15        -0.00001578
  16         0.13912596
  17         0.00376706
  18        -0.00455954
  19         0.00007959
  20        -0.00011619
  21        -0.00001565
  22        -0.00127389
  23         0.00058452
  24         0.00008226
  25         0.00024881
  26         0.00000014
  27        -0.00024810
  28        -0.00013767
  29        -0.00002049
  30         0.00003908
  31         0.00001008
  32         0.00006247
  33        -0.00002480
  34         0.00000966
  35        -0.69031132
  36        -0.01946897
  37         0.01370646
  38        -0.00003855
  39        -0.00023182
  40        -0.00003046
  41         0.00133028
  42         0.00155551
  43         0.00020002
  44         0.00075364
  45         0.00100191
  46         0.00159327
  47        -0.00007029
  48        -0.00000535
  49        -0.00009146
  50         0.00005001
  51         0.00033512
  52         0.69031319
  53         0.01946902
  54        -0.01370648
  55        -0.00003855
  56        -0.00023182
  57        -0.00003045
  58         0.00133028
  59         0.00155550
  60         0.00020006
  61        -0.00075365
  62        -0.00100192
  63        -0.00159327
  64         0.00007030
  65         0.00000535
  66         0.00009145
  67         0.00004108
  68        -0.00148226
  69        -0.13912581
  70        -0.00376706
  71         0.00455954
  72         0.00007959
  73        -0.00011619
  74        -0.00001566
  75        -0.00127389
  76         0.00058452
  77         0.00008226
  78        -0.00024881
  79        -0.00000014
  80         0.00024810
  81         0.00013767
  82         0.00002050
  83        -0.00003909
  84        -0.00004109
  85         0.00148227
  86        -0.01303569
  87        -0.00038081
  88        -0.00047358
  89        -0.00002713
  90        -0.00003781
  91        -0.00000488
  92         0.00037135
  93        -0.00010135
  94        -0.00001486
  95         0.00010982
  96         0.00011942
  97         0.00001669
  98         0.00003723
  99         0.00000448
 100         0.00001578
 101        -0.00005001
 102        -0.00033512
 103         0.00002480
 104        -0.00000966
 105        -0.00001008
 106        -0.00006247
Sym=     5a  
Ene=   -11.2230
Spin= Alpha
Occup=    2.00000
   1         0.68244345
   2         0.01898308
   3        -0.00827099
   4         0.00004525
   5         0.00001355
   6         0.00000156
   7        -0.00055259
   8        -0.00020149
   9        -0.00002427
  10        -0.00117116
  11        -0.00134900
  12        -0.00176998
  13         0.00013535
  14         0.00001509
  15         0.00006478
  16        -0.05192697
  17        -0.00167446
  18         0.00371190
  19         0.00012840
  20         0.00009267
  21         0.00001171
  22        -0.00098528
  23        -0.00061572
  24        -0.00007738
  25        -0.00011965
  26        -0.00010131
  27         0.00006736
  28         0.00002067
  29         0.00000362
  30        -0.00002625
  31        -0.00010410
  32         0.00143848
  33        -0.00008959
  34         0.00149827
  35         0.00219000
  36        -0.00003033
  37        -0.00016827
  38         0.00001771
  39         0.00003166
  40         0.00000411
  41         0.00021666
  42        -0.00031814
  43        -0.00004287
  44         0.00011363
  45         0.00000980
  46        -0.00001071
  47        -0.00004445
  48        -0.00000645
  49         0.00000337
  50        -0.00002569
  51        -0.00015460
  52         0.00233358
  53        -0.00002801
  54        -0.00023915
  55        -0.00001860
  56        -0.00003429
  57        -0.00000446
  58        -0.00017805
  59         0.00034529
  60         0.00004633
  61         0.00011850
  62         0.00001211
  63        -0.00001058
  64        -0.00004608
  65        -0.00000668
  66         0.00000371
  67        -0.00004218
  68        -0.00010393
  69        -0.05486309
  70        -0.00176867
  71         0.00391282
  72        -0.00013594
  73        -0.00009737
  74        -0.00001231
  75         0.00104483
  76         0.00063941
  77         0.00008020
  78        -0.00012589
  79        -0.00010734
  80         0.00007156
  81         0.00002196
  82         0.00000382
  83        -0.00002783
  84        -0.00004270
  85        -0.00011445
  86         0.72099624
  87         0.02005655
  88        -0.00873874
  89        -0.00004852
  90        -0.00001406
  91        -0.00000166
  92         0.00058708
  93         0.00021303
  94         0.00002578
  95        -0.00123726
  96        -0.00142517
  97        -0.00186929
  98         0.00014278
  99         0.00001591
 100         0.00006825
 101        -0.00002711
 102        -0.00016980
 103        -0.00009413
 104         0.00158199
 105        -0.00011012
 106         0.00151785
Sym=     6a  
Ene=   -11.2230
Spin= Alpha
Occup=    2.00000
   1        -0.72099585
   2        -0.02007517
   3         0.00874744
   4        -0.00006071
   5        -0.00000977
   6        -0.00000100
   7         0.00064346
   8         0.00021609
   9         0.00002583
  10         0.00123631
  11         0.00142488
  12         0.00185715
  13        -0.00013903
  14        -0.00001547
  15        -0.00006651
  16         0.05490732
  17         0.00176203
  18        -0.00376173
  19        -0.00014097
  20        -0.00008818
  21        -0.00001107
  22         0.00111186
  23         0.00044814
  24         0.00005476
  25         0.00011697
  26         0.00011253
  27        -0.00007828
  28        -0.00002399
  29        -0.00000409
  30         0.00002970
  31         0.00011247
  32        -0.00148523
  33         0.00008510
  34        -0.00156613
  35        -0.00267529
  36        -0.00004133
  37         0.00129562
  38        -0.00001668
  39        -0.00004876
  40        -0.00000637
  41         0.00069723
  42         0.00050346
  43         0.00006364
  44        -0.00009174
  45        -0.00004224
  46        -0.00000222
  47         0.00003089
  48         0.00000449
  49        -0.00000634
  50         0.00002652
  51         0.00028107
  52         0.00255103
  53         0.00004293
  54        -0.00128442
  55        -0.00001569
  56        -0.00004695
  57        -0.00000614
  58         0.00070807
  59         0.00048523
  60         0.00006126
  61         0.00008536
  62         0.00004164
  63         0.00000280
  64        -0.00002840
  65        -0.00000414
  66         0.00000614
  67         0.00001057
  68         0.00019463
  69        -0.05197383
  70        -0.00166744
  71         0.00355227
  72        -0.00013371
  73        -0.00008295
  74        -0.00001041
  75         0.00105609
  76         0.00041367
  77         0.00005036
  78        -0.00011023
  79        -0.00010680
  80         0.00007447
  81         0.00002282
  82         0.00000388
  83        -0.00002820
  84        -0.00000823
  85        -0.00018863
  86         0.68244303
  87         0.01900274
  88        -0.00828018
  89        -0.00005813
  90        -0.00000900
  91        -0.00000096
  92         0.00061215
  93         0.00020469
  94         0.00002458
  95        -0.00117015
  96        -0.00134865
  97        -0.00175719
  98         0.00013139
  99         0.00001462
 100         0.00006278
 101        -0.00002507
 102        -0.00027216
 103        -0.00008005
 104         0.00148151
 105        -0.00010658
 106         0.00140402
Sym=     7a  
Ene=    -1.1073
Spin= Alpha
Occup=    2.00000
   1        -0.05612596
   2         0.10525805
   3         0.08467322
   4         0.04779714
   5         0.01797104
   6         0.00218032
   7         0.00741741
   8         0.00358946
   9         0.00044375
  10         0.00615292
  11         0.00137886
  12        -0.00447935
  13         0.00279624
  14         0.00031972
  15         0.00089766
  16        -0.09183225
  17         0.17613854
  18         0.10729098
  19         0.01750762
  20        -0.03366944
  21        -0.00451516
  22         0.01234702
  23         0.00598194
  24         0.00074033
  25         0.01057779
  26         0.00393473
  27        -0.00773634
  28        -0.00159680
  29        -0.00029626
  30         0.00181745
  31         0.02351048
  32         0.00198696
  33         0.02701696
  34         0.00416632
  35        -0.12082018
  36         0.23009189
  37         0.15868464
  38         0.02991838
  39         0.04327858
  40         0.00559332
  41        -0.00299889
  42        -0.00297586
  43        -0.00038098
  44         0.01262768
  45         0.00450601
  46        -0.00983798
  47         0.00172768
  48         0.00012318
  49         0.00221834
  50         0.04510067
  51         0.00455483
  52        -0.12082020
  53         0.23009193
  54         0.15868466
  55        -0.02991836
  56        -0.04327841
  57        -0.00559438
  58         0.00299890
  59         0.00297593
  60         0.00038050
  61         0.01262768
  62         0.00450606
  63        -0.00983802
  64         0.00172770
  65         0.00012301
  66         0.00221814
  67         0.05877574
  68         0.00570416
  69        -0.09183227
  70         0.17613859
  71         0.10729101
  72        -0.01750764
  73         0.03366955
  74         0.00451453
  75        -0.01234700
  76        -0.00598194
  77        -0.00074037
  78         0.01057779
  79         0.00393477
  80        -0.00773638
  81        -0.00159677
  82        -0.00029647
  83         0.00181729
  84         0.05877577
  85         0.00570417
  86        -0.05612599
  87         0.10525810
  88         0.08467324
  89        -0.04779715
  90        -0.01797099
  91        -0.00218097
  92        -0.00741741
  93        -0.00358943
  94        -0.00044400
  95         0.00615292
  96         0.00137916
  97        -0.00447964
  98         0.00279622
  99         0.00031989
 100         0.00089643
 101         0.04510068
 102         0.00455482
 103         0.02701697
 104         0.00416632
 105         0.02351049
 106         0.00198696
Sym=     8a  
Ene=    -1.0560
Spin= Alpha
Occup=    2.00000
   1         0.10000037
   2        -0.18800636
   3        -0.15055804
   4        -0.06896028
   5        -0.03125709
   6        -0.00384848
   7        -0.00902899
   8        -0.00173599
   9        -0.00019203
  10        -0.01000354
  11        -0.00397245
  12         0.00799812
  13        -0.00405490
  14        -0.00045149
  15        -0.00184107
  16         0.11562169
  17        -0.22173900
  18        -0.15333674
  19         0.04202129
  20         0.04097858
  21         0.00524237
  22        -0.00311459
  23        -0.00903108
  24        -0.00117990
  25        -0.00933820
  26        -0.00500513
  27         0.00898129
  28        -0.00329732
  29        -0.00034970
  30        -0.00215642
  31        -0.04899500
  32        -0.00845889
  33        -0.05097978
  34        -0.00771416
  35         0.04167940
  36        -0.08074556
  37        -0.03953829
  38         0.07638140
  39        -0.01629419
  40        -0.00245645
  41         0.02651482
  42         0.01059791
  43         0.00129341
  44        -0.00619200
  45        -0.00329008
  46         0.00388355
  47         0.00558313
  48         0.00078417
  49        -0.00113610
  50        -0.05833055
  51        -0.00445153
  52        -0.04167935
  53         0.08074548
  54         0.03953824
  55         0.07638146
  56        -0.01629406
  57        -0.00245712
  58         0.02651483
  59         0.01059803
  60         0.00129252
  61         0.00619200
  62         0.00329008
  63        -0.00388355
  64        -0.00558311
  65        -0.00078437
  66         0.00113608
  67        -0.02198027
  68        -0.00039164
  69        -0.11562168
  70         0.22173897
  71         0.15333671
  72         0.04202127
  73         0.04097881
  74         0.00524101
  75        -0.00311457
  76        -0.00903111
  77        -0.00117968
  78         0.00933819
  79         0.00500517
  80        -0.00898133
  81         0.00329737
  82         0.00034936
  83         0.00215625
  84         0.02198025
  85         0.00039164
  86        -0.10000037
  87         0.18800636
  88         0.15055804
  89        -0.06896026
  90        -0.03125694
  91        -0.00384990
  92        -0.00902900
  93        -0.00173584
  94        -0.00019313
  95         0.01000354
  96         0.00397302
  97        -0.00799868
  98         0.00405484
  99         0.00045189
 100         0.00183867
 101         0.05833054
 102         0.00445152
 103         0.05097979
 104         0.00771416
 105         0.04899500
 106         0.00845890
Sym=     9a  
Ene=    -0.9853
Spin= Alpha
Occup=    2.00000
   1        -0.10659580
   2         0.20095413
   3         0.16726199
   4         0.04326145
   5         0.03001931
   6         0.00378691
   7         0.00475562
   8        -0.00449538
   9        -0.00061394
  10         0.00936040
  11         0.00646794
  12        -0.00872005
  13         0.00275877
  14         0.00027985
  15         0.00234575
  16        -0.05872227
  17         0.11359163
  18         0.07237891
  19        -0.12964668
  20        -0.01971900
  21        -0.00208569
  22        -0.03040306
  23         0.00861844
  24         0.00125936
  25        -0.00047130
  26         0.00197954
  27        -0.00351148
  28         0.00979006
  29         0.00127810
  30         0.00081144
  31         0.06562892
  32         0.01827138
  33         0.06017879
  34         0.00974844
  35         0.09284583
  36        -0.17869202
  37        -0.12944199
  38        -0.10570053
  39        -0.03065209
  40        -0.00362357
  41        -0.03071611
  42         0.01446653
  43         0.00203270
  44        -0.00304811
  45        -0.00479576
  46         0.00647464
  47        -0.00849522
  48        -0.00107661
  49        -0.00171345
  50         0.02991067
  51         0.00293737
  52         0.09284583
  53        -0.17869201
  54        -0.12944202
  55         0.10570054
  56         0.03065204
  57         0.00362388
  58         0.03071614
  59        -0.01446653
  60        -0.00203262
  61        -0.00304811
  62        -0.00479582
  63         0.00647470
  64        -0.00849521
  65        -0.00107665
  66        -0.00171319
  67        -0.04936522
  68        -0.00297548
  69        -0.05872226
  70         0.11359160
  71         0.07237888
  72         0.12964662
  73         0.01971931
  74         0.00208384
  75         0.03040305
  76        -0.00861844
  77        -0.00125923
  78        -0.00047131
  79         0.00197956
  80        -0.00351149
  81         0.00979009
  82         0.00127782
  83         0.00081139
  84        -0.04936523
  85        -0.00297548
  86        -0.10659577
  87         0.20095408
  88         0.16726196
  89        -0.04326142
  90        -0.03001905
  91        -0.00378898
  92        -0.00475563
  93         0.00449565
  94         0.00061188
  95         0.00936040
  96         0.00646864
  97        -0.00872075
  98         0.00275869
  99         0.00028043
 100         0.00234275
 101         0.02991067
 102         0.00293737
 103         0.06017878
 104         0.00974844
 105         0.06562891
 106         0.01827137
Sym=    10a  
Ene=    -0.8409
Spin= Alpha
Occup=    2.00000
   1         0.09455028
   2        -0.18180432
   3        -0.16655429
   4         0.05959628
   5         0.00618469
   6         0.00058433