   This run of MOLCAS is using the pymolcas driver

                             OPE
                             OPE          NMOL  CASOP  ENMOLC A   SO
                 OPE        NMOLC        AS  OP EN  MO LC     AS  OP
                OPENM       OL CA        SO  PE NM  OL CA     SOP EN
                OP EN      MO   LC       AS  OP ENMOL  CASO   PENMOL
                OP  EN     MO   LC       AS  OP EN     MO     LC ASO
               OP   E  NMOL  C  AS       OP  EN MO     LC     AS  OP
               OP  E   NMO   LC AS        OPEN  MO     LCASOP EN   M
               O  PEN   MO  LCA  SO
            OPE   NMO   L   CAS    OP
        OPENMOL  CASOP     ENMOL   CASOPE
     OPENMOLCA   SOPENMOLCASOPEN   MOLCASOPE
    OPENMOLCAS   OP           EN   MOL    CAS
    OPENMOLCAS       OP  ENM        O     LCA
    OPENMOLCAS    OPEN  MOLCASO     P  E  NMO
    OPENMOLCAS     OP               E  N  MOL
    OPENMOLCA   SO           PENM   O  L  CAS    OPEN    MO    LCAS
    OPENMOLCA   SOP           ENM   O  L  CAS   OP  EN  MOLC  AS   O
    OPENMOLCA   SOPE           NM      O  LCA   S      OP  EN MO
    OPENMOLC                AS         O  PEN   M      OL  CA  SOPE
    OPENMO        LCASOPE  NMOL        C  ASO   P      ENMOLC     AS
    OPE     NMO      LCA  SO     P     E   NM   OL  CA SO  PE N   MO
          OPENMOLCA            SOPE   NMO        LCAS  O    P  ENMO
     OPENMOLCASOPENMOLCASOPENMOLCASOPENMOLCA
        OPENMOLCASOPENMOLCASOPENMOLCASOPE
            OPENMOLCASOPENMOLCASOPENM
               OPENMOLCASOPENMOLCA        version: 24.02
                   OPENMOLCASO
                       OPE                tag: 428-g03afa2e9a

 OpenMolcas is free software; you can redistribute it and/or modify it
 under the terms of the GNU Lesser General Public License version 2.1.
 OpenMolcas is distributed in the hope that it will be useful, but it
 is provided "as is" and without any express or implied warranties.
 For more details see the full text of the license in the file
 LICENSE or in <http://www.gnu.org/licenses/>.

                 Copyright (C) The OpenMolcas Authors
           For the author list and the recommended citation,
                   consult the file CONTRIBUTORS.md

           *************************************************
           * pymolcas version py2.28                       *
           *   build c4a6d18ded8cb6cad61d2372a9abd97c      *
           *   (after the EMIL interpreter by V. Veryazov) *
           *************************************************

configuration info
------------------
Host name: DESKTOP-ET1S6F4 (Linux)
C Compiler ID: GNU
C flags: -std=gnu99 -fopenmp
Fortran Compiler ID: GNU
Fortran flags: -fno-aggressive-loop-optimizations -cpp -fdefault-integer-8 -fopenmp
Definitions: _WARNING_WORKAROUND_;_MOLCAS_;_I8_;_LINUX_
Parallel: OFF (GA=OFF)


   ----------------------------------------------------------------------
  |
  |           Project: c6h8
  |    Submitted from: /home/kenya/molcas_test/0528
  |      Scratch area: /tmp/c6h8
  |   Save outputs to: /home/kenya/molcas_test/0528
  |            Molcas: /home/kenya/OpenMolcas/builds/gnu_dev_omp
  |
  | Scratch area is NOT empty
  |
  |    MOLCAS_DRIVER = /home/kenya/OpenMolcas/builds/gnu_dev_omp/pymolcas
  |    MOLCAS_NPROCS = 1
  |    MOLCAS_SOURCE = /home/kenya/OpenMolcas
  | MOLCAS_STRUCTURE = 0
  |
   ----------------------------------------------------------------------

++ ---------   Input file   ---------

&GATEWAY
  Coord = 14
  Angstrom

C         -7.00585        2.33294       -0.01675
C         -5.83404        2.96760        0.06240
H         -7.93210        2.89306        0.06087
H         -7.05450        1.25729       -0.15860
C         -4.55760        2.23101       -0.03992
H         -5.82819        4.04498        0.20464
C         -3.38412        2.87192        0.03999
H         -4.57619        1.15280       -0.18218
C         -2.10768        2.13534       -0.06235
H         -3.36554        3.95014        0.18224
C         -0.93588        2.77001        0.01669
H         -2.11353        1.05795       -0.20451
H         -0.88722        3.84568        0.15844
H         -0.00962        2.20990       -0.06096


  Basis = 6-31G*
  Group = full
  NoCD

>>> DO WHILE

  &SEWARD

  &SCF

  &SLAPAF

>>> END DO

-- ----------------------------------

--- Start Module: gateway at Tue May 28 14:02:21 2024 ---

()()()()()()()()()()()()()()()()()()()()()()()()()()()()()()()()()()()()()()()()()()()()()()()()()()

                                              &GATEWAY

                                   only a single process is used
                       available to each process: 2.0 GB of memory, 1 thread
                                             pid: 44963
()()()()()()()()()()()()()()()()()()()()()()()()()()()()()()()()()()()()()()()()()()()()()()()()()()


++    Symmetry information:
      ---------------------

                    Character Table for C1 

                             E  
                    a        1  x, y, xy, Rz, z, xz, Ry, yz, Rx, I
--


++    Basis set information:
      ----------------------


      Basis set label: C.6-31G**....

      Electronic valence basis set:
      ------------------
      Associated Effective Charge   6.000000 au
      Associated Actual Charge      6.000000 au
      Nuclear Model: Point charge

      Shell  nPrim  nBasis  Cartesian Spherical Contaminant
         s      10       3        X                  
         p       4       2        X                  
         d       1       1        X                  


      Basis set label: H.6-31G....

      Electronic valence basis set:
      ------------------
      Associated Effective Charge   1.000000 au
      Associated Actual Charge      1.000000 au
      Nuclear Model: Point charge

      Shell  nPrim  nBasis  Cartesian Spherical Contaminant
         s       4       2        X                  


      Basis set label: C.6-31G**....

      Electronic valence basis set:
      ------------------
      Associated Effective Charge   6.000000 au
      Associated Actual Charge      6.000000 au
      Nuclear Model: Point charge

      Shell  nPrim  nBasis  Cartesian Spherical Contaminant
         s      10       3        X                  
         p       4       2        X                  
         d       1       1        X                  


      Basis set label: H.6-31G....

      Electronic valence basis set:
      ------------------
      Associated Effective Charge   1.000000 au
      Associated Actual Charge      1.000000 au
      Nuclear Model: Point charge

      Shell  nPrim  nBasis  Cartesian Spherical Contaminant
         s       4       2        X                  


      Basis set label: C.6-31G**....

      Electronic valence basis set:
      ------------------
      Associated Effective Charge   6.000000 au
      Associated Actual Charge      6.000000 au
      Nuclear Model: Point charge

      Shell  nPrim  nBasis  Cartesian Spherical Contaminant
         s      10       3        X                  
         p       4       2        X                  
         d       1       1        X                  


      Basis set label: H.6-31G....

      Electronic valence basis set:
      ------------------
      Associated Effective Charge   1.000000 au
      Associated Actual Charge      1.000000 au
      Nuclear Model: Point charge

      Shell  nPrim  nBasis  Cartesian Spherical Contaminant
         s       4       2        X                  


      Basis set label: C.6-31G**....

      Electronic valence basis set:
      ------------------
      Associated Effective Charge   6.000000 au
      Associated Actual Charge      6.000000 au
      Nuclear Model: Point charge

      Shell  nPrim  nBasis  Cartesian Spherical Contaminant
         s      10       3        X                  
         p       4       2        X                  
         d       1       1        X                  


      Basis set label: H.6-31G....

      Electronic valence basis set:
      ------------------
      Associated Effective Charge   1.000000 au
      Associated Actual Charge      1.000000 au
      Nuclear Model: Point charge

      Shell  nPrim  nBasis  Cartesian Spherical Contaminant
         s       4       2        X                  


      Basis set label: C.6-31G**....

      Electronic valence basis set:
      ------------------
      Associated Effective Charge   6.000000 au
      Associated Actual Charge      6.000000 au
      Nuclear Model: Point charge

      Shell  nPrim  nBasis  Cartesian Spherical Contaminant
         s      10       3        X                  
         p       4       2        X                  
         d       1       1        X                  


      Basis set label: H.6-31G....

      Electronic valence basis set:
      ------------------
      Associated Effective Charge   1.000000 au
      Associated Actual Charge      1.000000 au
      Nuclear Model: Point charge

      Shell  nPrim  nBasis  Cartesian Spherical Contaminant
         s       4       2        X                  
--


++    Molecular structure info:
      -------------------------

                    ************************************************ 
                    **** Cartesian Coordinates / Bohr, Angstrom **** 
                    ************************************************ 

     Center  Label                x              y              z                     x              y              z
        1      C1             -13.239138       4.408618      -0.031653             -7.005850       2.332940      -0.016750
        2      C2             -11.024738       5.607951       0.117919             -5.834040       2.967600       0.062400
        3      H3             -14.989497       5.467091       0.115028             -7.932100       2.893060       0.060870
        4      H4             -13.331073       2.375934      -0.299711             -7.054500       1.257290      -0.158600
        5      C5              -8.612616       4.215998      -0.075438             -4.557600       2.231010      -0.039920
        6      H6             -11.013683       7.643904       0.386714             -5.828190       4.044980       0.204640
        7      C7              -6.395060       5.427142       0.075570             -3.384120       2.871920       0.039990
        8      H8              -8.647746       2.178476      -0.344270             -4.576190       1.152800      -0.182180
        9      C9              -3.982938       4.035208      -0.117824             -2.107680       2.135340      -0.062350
       10      H10             -6.359949       7.464683       0.344384             -3.365540       3.950140       0.182240
       11      C11             -1.768557       5.234560       0.031540             -0.935880       2.770010       0.016690
       12      H12             -3.993993       1.999236      -0.386468             -2.113530       1.057950      -0.204510
       13      H13             -1.676603       7.267282       0.299408             -0.887220       3.845680       0.158440
       14      H14             -0.018179       4.176106      -0.115198             -0.009620       2.209900      -0.060960

                    *************************************** 
                    *    InterNuclear Distances / Bohr    * 
                    *************************************** 

               1 C1            2 C2            3 H3            4 H4            5 C5            6 H6    
    1 C1       0.000000
    2 C2       2.522764        0.000000
    3 H3       2.050765        3.967261        0.000000
    4 H4       2.052343        3.992434        3.532369        0.000000
    5 C5       4.630737        2.791640        6.501240        5.069514        0.000000
    6 H6       3.949020        2.053650        4.540862        5.795946        4.210612        0.000000
    7 C7       6.920281        4.633401        8.594620        7.586764        2.531250        5.132497
    8 H8       5.113916        4.198215        7.158474        4.687700        2.055480        6.000242
    9 C9       9.264130        7.219144       11.101750        9.495994        4.633400        7.918878
   10 H10      7.536855        5.025833        8.860704        8.654871        3.975514        4.657376
   11 C11     11.500452        9.264112       13.223248       11.915253        6.920264        9.560515
   12 H12      9.560529        7.918877       11.540304        9.345079        5.132490        9.040804
   13 H13     11.915275        9.495996       13.435320       12.653494        7.586773        9.345081
   14 H14     13.223267       11.101750       15.028639       13.435319        8.594621       11.540305

               7 C7            8 H8            9 C9           10 H10          11 C11          12 H12   
    7 C7       0.000000
    8 H8       3.975511        0.000000
    9 C9       2.791633        5.025849        0.000000
   10 H10      2.055496        5.801055        4.198228        0.000000
   11 C11      4.630719        7.536851        2.522744        5.113922        0.000000
   12 H12      4.210599        4.657395        2.053649        6.000250        3.949002        0.000000
   13 H13      5.069522        8.654889        3.992439        4.687720        2.052356        5.795950
   14 H14      6.501238        8.860723        3.967262        7.158491        2.050775        4.540864

              13 H13          14 H14   
   13 H13      0.000000
   14 H14      3.532370        0.000000

                    ******************************************* 
                    *    InterNuclear Distances / Angstrom    * 
                    ******************************************* 

               1 C1            2 C2            3 H3            4 H4            5 C5            6 H6    
    1 C1       0.000000
    2 C2       1.334989        0.000000
    3 H3       1.085218        2.099384        0.000000
    4 H4       1.086053        2.112705        1.869249        0.000000
    5 C5       2.450480        1.477272        3.440308        2.682671        0.000000
    6 H6       2.089731        1.086745        2.402920        3.067082        2.228160        0.000000
    7 C7       3.662055        2.451890        4.548077        4.014743        1.339480        2.716000
    8 H8       2.706168        2.221600        3.788101        2.480624        1.087713        3.175191
    9 C9       4.902366        3.820207        5.874793        5.025064        2.451890        4.190490
   10 H10      3.988332        2.659556        4.688882        4.579961        2.103751        2.464577
   11 C11      6.085777        4.902357        6.997441        6.305280        3.662046        5.059207
   12 H12      5.059214        4.190489        6.106866        4.945203        2.715997        4.784188
   13 H13      6.305292        5.025065        7.109665        6.695941        4.014747        4.945204
   14 H14      6.997452        5.874793        7.952813        7.109665        4.548078        6.106867

               7 C7            8 H8            9 C9           10 H10          11 C11          12 H12   
    7 C7       0.000000
    8 H8       2.103750        0.000000
    9 C9       1.477269        2.659565        0.000000
   10 H10      1.087722        3.069786        2.221606        0.000000
   11 C11      2.450471        3.988330        1.334979        2.706171        0.000000
   12 H12      2.228153        2.464587        1.086744        3.175196        2.089722        0.000000
   13 H13      2.682676        4.579970        2.112708        2.480635        1.086060        3.067085
   14 H14      3.440307        4.688893        2.099385        3.788110        1.085224        2.402922

              13 H13          14 H14   
   13 H13      0.000000
   14 H14      1.869250        0.000000

                    ************************************** 
                    *    Valence Bond Angles / Degree    * 
                    ************************************** 
                          Atom centers                 Phi
                      2 C2       1 C1       3 H3       119.97
                      2 C2       1 C1       4 H4       121.19
                      3 H3       1 C1       4 H4       118.84
                      1 C1       2 C2       5 C5       121.15
                      1 C1       2 C2       6 H6       118.93
                      5 C5       2 C2       6 H6       119.92
                      2 C2       5 C5       7 C7       120.95
                      2 C2       5 C5       8 H8       119.25
                      7 C7       5 C5       8 H8       119.81
                      5 C5       7 C7       9 C9       120.95
                      5 C5       7 C7      10 H10      119.81
                      9 C9       7 C7      10 H10      119.25
                      7 C7       9 C9      11 C11      121.15
                      7 C7       9 C9      12 H12      119.92
                     11 C11      9 C9      12 H12      118.93
                      9 C9      11 C11     13 H13      121.19
                      9 C9      11 C11     14 H14      119.97
                     13 H13     11 C11     14 H14      118.83

           ***************************************************************
           *              Valence Dihedral Angles / Degree               *
           ***************************************************************
                    Atom centers                       Phi1     Phi2     Theta 
           3 H3       1 C1       2 C2       5 C5        119.97   121.15  -180.00
           3 H3       1 C1       2 C2       6 H6        119.97   118.93     0.00
           4 H4       1 C1       2 C2       5 C5        121.19   121.15    -0.00
           4 H4       1 C1       2 C2       6 H6        121.19   118.93   180.00
           1 C1       2 C2       5 C5       7 C7        121.15   120.95   180.00
           1 C1       2 C2       5 C5       8 H8        121.15   119.25    -0.00
           6 H6       2 C2       5 C5       7 C7        119.92   120.95    -0.00
           6 H6       2 C2       5 C5       8 H8        119.92   119.25   180.00
           2 C2       5 C5       7 C7       9 C9        120.95   120.95  -180.00
           2 C2       5 C5       7 C7      10 H10       120.95   119.81     0.00
           8 H8       5 C5       7 C7       9 C9        119.81   120.95    -0.00
           8 H8       5 C5       7 C7      10 H10       119.81   119.81   180.00
           5 C5       7 C7       9 C9      11 C11       120.95   121.15   180.00
           5 C5       7 C7       9 C9      12 H12       120.95   119.92    -0.00
          10 H10      7 C7       9 C9      11 C11       119.25   121.15    -0.00
          10 H10      7 C7       9 C9      12 H12       119.25   119.92   180.00
           7 C7       9 C9      11 C11     13 H13       121.15   121.19    -0.00
           7 C7       9 C9      11 C11     14 H14       121.15   119.97  -180.00
          12 H12      9 C9      11 C11     13 H13       118.93   121.19   180.00
          12 H12      9 C9      11 C11     14 H14       118.93   119.97     0.00
--


            Nuclear Potential Energy            194.23727043 au

--- Stop Module: gateway at Tue May 28 14:02:22 2024 /rc=_RC_ALL_IS_WELL_ ---
*** files: xmldump
    saved to directory /home/kenya/molcas_test/0528

--- Start Module: seward at Tue May 28 14:02:22 2024 ---

()()()()()()()()()()()()()()()()()()()()()()()()()()()()()()()()()()()()()()()()()()()()()()()()()()

                                              &SEWARD

                                   only a single process is used
                       available to each process: 2.0 GB of memory, 1 thread
                                             pid: 44981
()()()()()()()()()()()()()()()()()()()()()()()()()()()()()()()()()()()()()()()()()()()()()()()()()()

               SEWARD will generate:
                  Multipole Moment integrals up to order  2
                  Kinetic Energy integrals
                  Nuclear Attraction integrals (point charge)
                  One-Electron Hamiltonian integrals
                  Velocity integrals
                  Orbital angular momentum around (-7.5038  4.8216  0.0000 )
                  Velocity quadrupole around (-7.5038  4.8216  0.0000 )
                  Two-Electron Repulsion integrals

                   Integrals are discarded if absolute value <: 1.00E-14
                   Integral cutoff threshold is set to       <: 1.00E-16

            Nuclear Potential Energy            194.23727043 au


      Basis set specifications :
      Symmetry species         a  
      Basis functions          106


      Input file to MOLDEN was generated!

--- Stop Module: seward at Tue May 28 14:02:34 2024 /rc=_RC_ALL_IS_WELL_ ---
*** files: c6h8.GssOrb c6h8.guessorb.molden xmldump
    saved to directory /home/kenya/molcas_test/0528
--- Module seward spent 11 seconds ---

*** symbolic link created: INPORB -> c6h8.GssOrb
--- Start Module: scf at Tue May 28 14:02:34 2024 ---

()()()()()()()()()()()()()()()()()()()()()()()()()()()()()()()()()()()()()()()()()()()()()()()()()()

                                                &SCF

                                   only a single process is used
                       available to each process: 2.0 GB of memory, 1 thread
                                             pid: 45087
()()()()()()()()()()()()()()()()()()()()()()()()()()()()()()()()()()()()()()()()()()()()()()()()()()

++    Input section:
      --------------

      Header of the integral files:
      
       Integrals generated by Gateway/Seward, Tue May 28 14:02:22 2024


      Cartesian coordinates in Angstrom:
      -----------------------------------------------------
      No.  Label        X            Y            Z        
      -----------------------------------------------------
       1   C1        -7.00585000   2.33294000  -0.01675000
       2   C2        -5.83404000   2.96760000   0.06240000
       3   H3        -7.93210000   2.89306000   0.06087000
       4   H4        -7.05450000   1.25729000  -0.15860000
       5   C5        -4.55760000   2.23101000  -0.03992000
       6   H6        -5.82819000   4.04498000   0.20464000
       7   C7        -3.38412000   2.87192000   0.03999000
       8   H8        -4.57619000   1.15280000  -0.18218000
       9   C9        -2.10768000   2.13534000  -0.06235000
      10   H10       -3.36554000   3.95014000   0.18224000
      11   C11       -0.93588000   2.77001000   0.01669000
      12   H12       -2.11353000   1.05795000  -0.20451000
      13   H13       -0.88722000   3.84568000   0.15844000
      14   H14       -0.00962000   2.20990000  -0.06096000
      -----------------------------------------------------
      Nuclear repulsion energy =  194.23727043
--

++    Orbital specifications:
      -----------------------

      Symmetry species               1
                                     a
      Frozen orbitals                0
      Occupied orbitals             22
      Secondary orbitals            84
      Deleted orbitals               0
      Total number of orbitals     106
      Number of basis functions    106
--

      Molecular charge                           0.000

++    Optimization specifications:
      ----------------------------

      SCF Algorithm: Conventional
      Minimized density differences are used
      Number of density matrices in core                 5
      Maximum number of NDDO SCF iterations            400
      Maximum number of HF SCF iterations              400
      Threshold for SCF energy change             1.00E-09
      Threshold for density matrix                1.00E-04
      Threshold for Fock matrix                   1.50E-04
      Threshold for linear dependence             1.00E-09
      Threshold at which DIIS is turned on        1.50E-01
      Maximum depth in the DIIS procedure                5
      Maximum depth in the BFGS Hessian update          30
      Threshold at which QNR/C2DIIS is turned on  7.50E-02
      Threshold for Norm(delta) (QNR/C2DIIS)      1.00E-03
      All orbitals punched on: SCFORB
--

      Input vectors read from INPORB
      Orbital file label: *Guess orbitals


++ Convergence information
                                   SCF        iterations: Energy and convergence statistics

Iter     Tot. SCF        One-elec.       Two-elec.     Energy      Max Dij or  Max Fij      DNorm      TNorm      AccCon     Time
         Energy          Energy          Energy        Change      Delta Norm                                                in Sec.
   1  -231.369273935  -689.783899403   264.177355040   0.00E+00    1.56E-01*   1.50E-01*    6.90E+00   2.43E+02   None         1.
   2  -231.767239185  -698.026283078   272.021773466  -3.98E-01*   1.03E-01*   6.00E-02*    1.44E+00   2.46E+02   EDIIS        1.
   3  -231.799370068  -695.333433240   269.296792745  -3.21E-02*   3.31E-02*   9.90E-03*    5.21E-01   2.45E+02   c2DIIS       1.
   4  -231.803674471  -696.224387986   270.183443088  -4.30E-03*   1.72E-02*   5.78E-03*    1.58E-01   2.45E+02   QNRc2DIIS    1.
   5  -231.804056301  -696.047924965   270.006598237  -3.82E-04*   6.26E-03*   2.73E-03*    4.09E-02   2.45E+02   QNRc2DIIS    1.
   6  -231.804175430  -696.099227713   270.057781856  -1.19E-04*   1.25E-03*   2.54E-04*    4.60E-03   2.45E+02   QNRc2DIIS    1.
   7  -231.804177729  -696.114618676   270.073170520  -2.30E-06*   2.21E-04    8.92E-05     1.30E-03   2.45E+02   QNRc2DIIS    1.
   8  -231.804177857  -696.110850384   270.069402100  -1.28E-07*   9.36E-05    2.39E-05     3.34E-04   2.45E+02   QNRc2DIIS    1.
   9  -231.804177867  -696.110641183   270.069192890  -9.79E-09*   1.89E-05    4.96E-06     1.13E-04   2.45E+02   QNRc2DIIS    1.
  10  -231.804177867  -696.110781372   270.069333078  -4.63E-10    3.92E-06    1.12E-06     2.71E-05   2.45E+02   QNRc2DIIS    1.

       Convergence after  10 Macro Iterations
--

 *****************************************************************************************************************************
 *                                                                                                                           *
 *                                             SCF/KS-DFT Program, Final results                                             *
 *                                                                                                                           *
 *                                                                                                                           *
 *                                                                                                                           *
 *                                                       Final Results                                                       *
 *                                                                                                                           *
 *****************************************************************************************************************************

::    Total SCF energy                               -231.8041778670
      One-electron energy                            -696.1107813721
      Two-electron energy                             270.0693330779
      Nuclear repulsion energy                        194.2372704272
      Kinetic energy (interpolated)                   231.3842874650
      Virial theorem                                    1.0018146885
      Total spin, S(S+1)                                0.0000000000
      Total spin, S                                     0.0000000000
      Max non-diagonal density matrix element           0.0000020233
      Max non-diagonal Fock matrix element              0.0000004485


      All orbitals with orbital energies smaller than  E(LUMO)+0.5 are printed

++    Molecular orbitals:
      -------------------

      Title: SCF orbitals

      Molecular orbitals for symmetry species 1: a  

          Orbital            1         2         3         4         5         6         7         8         9        10    
          Energy          -11.2375  -11.2374  -11.2367  -11.2352  -11.2245  -11.2245   -1.1028   -1.0507   -0.9794   -0.8303
          Occ. No.          2.0000    2.0000    2.0000    2.0000    2.0000    2.0000    2.0000    2.0000    2.0000    2.0000

        1 C1     1s         0.0383   -0.0442   -0.0246    0.0100   -0.5753   -0.8100   -0.0560    0.0998   -0.1058    0.0942
        2 C1     2s         0.0008   -0.0010   -0.0007    0.0003   -0.0159   -0.0224    0.1052   -0.1880    0.1998   -0.1815
        3 C1     *s         0.0025   -0.0024   -0.0012    0.0006    0.0069    0.0098    0.0852   -0.1505    0.1696   -0.1709
        4 C1     2px       -0.0001    0.0001    0.0000   -0.0000   -0.0000   -0.0000    0.0477   -0.0685    0.0426    0.0624
        5 C1     *px        0.0013   -0.0011   -0.0004    0.0003    0.0005    0.0008    0.0075   -0.0090    0.0059    0.0289
        6 C1     2py       -0.0000    0.0000    0.0001   -0.0000   -0.0000   -0.0000    0.0189   -0.0328    0.0316    0.0068
        7 C1     *py        0.0002   -0.0001   -0.0003   -0.0000    0.0002    0.0003    0.0039   -0.0019   -0.0039    0.0070
        8 C1     2pz       -0.0000    0.0000    0.0000   -0.0000   -0.0000    0.0000    0.0023   -0.0041    0.0040    0.0007
        9 C1     *pz        0.0000   -0.0000   -0.0000   -0.0000    0.0000    0.0000    0.0005   -0.0002   -0.0005    0.0008
       10 C1     *200      -0.0001    0.0001    0.0001   -0.0001    0.0006    0.0008    0.0035   -0.0056    0.0051   -0.0028
       11 C1     *110      -0.0000    0.0000    0.0000   -0.0000   -0.0001   -0.0001    0.0029   -0.0040    0.0025    0.0048
       12 C1     *101      -0.0000    0.0000    0.0000   -0.0000   -0.0000   -0.0000    0.0003   -0.0004    0.0002    0.0007
       13 C1     *020      -0.0001    0.0002    0.0001   -0.0001    0.0006    0.0009    0.0010   -0.0026    0.0039   -0.0066
       14 C1     *011      -0.0000    0.0000    0.0000   -0.0000   -0.0001   -0.0001    0.0009   -0.0019    0.0024   -0.0030
       15 C1     *002      -0.0001    0.0001    0.0000   -0.0000    0.0008    0.0012   -0.0026    0.0046   -0.0050    0.0044
       16 C2     1s         0.6071   -0.6891   -0.3577    0.1254    0.0376    0.0529   -0.0911    0.1147   -0.0584   -0.0523
       17 C2     2s         0.0167   -0.0191   -0.0099    0.0033    0.0012    0.0017    0.1750   -0.2205    0.1134    0.1043
       18 C2     *s        -0.0063    0.0086    0.0064   -0.0043   -0.0031   -0.0042    0.1082   -0.1549    0.0723    0.0947
       19 C2     2px        0.0001   -0.0001   -0.0001    0.0001   -0.0001   -0.0001    0.0166    0.0429   -0.1286    0.1602
       20 C2     *px        0.0007    0.0004    0.0007   -0.0011    0.0008    0.0013    0.0120   -0.0009   -0.0305    0.0497
       21 C2     2py       -0.0001    0.0001    0.0001   -0.0001   -0.0001   -0.0001   -0.0358    0.0429   -0.0196    0.0014
       22 C2     *py        0.0007   -0.0009   -0.0005    0.0007    0.0006    0.0006    0.0060   -0.0079    0.0102    0.0118
       23 C2     2pz       -0.0000    0.0000    0.0000   -0.0000   -0.0000   -0.0000   -0.0048    0.0055   -0.0021   -0.0005
       24 C2     *pz        0.0001   -0.0001   -0.0001    0.0001    0.0001    0.0001    0.0007   -0.0010    0.0015    0.0014
       25 C2     *200      -0.0006    0.0007    0.0002    0.0001    0.0001    0.0001    0.0059   -0.0052   -0.0002    0.0019
       26 C2     *110       0.0002   -0.0001    0.0001   -0.0001   -0.0000   -0.0000   -0.0020   -0.0031    0.0100   -0.0119
       27 C2     *101       0.0000   -0.0000    0.0000   -0.0000   -0.0000   -0.0000   -0.0004   -0.0003    0.0013   -0.0016
       28 C2     *020      -0.0007    0.0008    0.0003    0.0000    0.0001    0.0001    0.0025   -0.0032    0.0014    0.0043
       29 C2     *011       0.0000   -0.0001   -0.0001    0.0000    0.0000    0.0000    0.0019   -0.0022    0.0009    0.0019
       30 C2     *002      -0.0009    0.0009    0.0004   -0.0001   -0.0000   -0.0000   -0.0044    0.0051   -0.0020   -0.0026
       31 H3     1s        -0.0000    0.0000    0.0000    0.0000    0.0001    0.0001    0.0234   -0.0490    0.0653   -0.0997
       32 H3     *s         0.0002   -0.0002    0.0001    0.0000   -0.0012   -0.0016    0.0021   -0.0089    0.0189   -0.0414
       33 H4     1s        -0.0001    0.0001   -0.0000   -0.0000    0.0001    0.0001    0.0272   -0.0510    0.0595   -0.0817
       34 H4     *s        -0.0001    0.0002   -0.0000    0.0000   -0.0012   -0.0017    0.0044   -0.0081    0.0100   -0.0332
       35 C5     1s         0.3591   -0.1239    0.6055   -0.6931   -0.0014   -0.0023   -0.1201    0.0410    0.0924   -0.0777
       36 C5     2s         0.0098   -0.0036    0.0166   -0.0194    0.0000   -0.0000    0.2291   -0.0792   -0.1785    0.1552
       37 C5     *s        -0.0009   -0.0008   -0.0062    0.0134   -0.0000    0.0012    0.1603   -0.0432   -0.1309    0.1329
       38 C5     2px       -0.0001   -0.0001   -0.0002   -0.0000   -0.0000   -0.0000    0.0308    0.0753   -0.1054   -0.1229
       39 C5     *px        0.0000    0.0014    0.0014    0.0013   -0.0003    0.0006   -0.0029    0.0250   -0.0317   -0.0393
       40 C5     2py       -0.0000    0.0001    0.0000   -0.0002   -0.0000   -0.0000    0.0457   -0.0175   -0.0319    0.0109
       41 C5     *py       -0.0004   -0.0004   -0.0004    0.0016    0.0003    0.0005   -0.0026    0.0090    0.0148   -0.0103
       42 C5     2pz       -0.0000    0.0000    0.0000   -0.0000   -0.0000   -0.0000    0.0059   -0.0026   -0.0038    0.0019
       43 C5     *pz       -0.0001   -0.0001   -0.0001    0.0002    0.0000    0.0001   -0.0003    0.0011    0.0021   -0.0012
       44 C5     *200      -0.0005    0.0003   -0.0005    0.0005   -0.0001   -0.0001    0.0070   -0.0033   -0.0016    0.0010
       45 C5     *110       0.0002   -0.0001   -0.0000   -0.0001    0.0000    0.0000    0.0016    0.0060   -0.0086   -0.0084
       46 C5     *101       0.0000   -0.0000   -0.0000   -0.0000    0.0000    0.0000    0.0001    0.0008   -0.0011   -0.0011
       47 C5     *020      -0.0006    0.0003   -0.0007    0.0006   -0.0000   -0.0000    0.0030   -0.0020   -0.0030    0.0056
       48 C5     *011       0.0000    0.0000    0.0000   -0.0001   -0.0000   -0.0000    0.0023   -0.0011   -0.0018    0.0024
       49 C5     *002      -0.0006    0.0002   -0.0008    0.0009    0.0000   -0.0000   -0.0056    0.0022    0.0037   -0.0033
       50 H6     1s        -0.0002    0.0001   -0.0000    0.0000    0.0000    0.0000    0.0439   -0.0578    0.0311    0.0450
       51 H6     *s         0.0009   -0.0012   -0.0010    0.0003    0.0001    0.0003    0.0046   -0.0054    0.0030    0.0135
       52 C7     1s         0.3583    0.1274    0.6055    0.6929   -0.0021    0.0017   -0.1201   -0.0410    0.0924    0.0777
       53 C7     2s         0.0098    0.0037    0.0166    0.0194    0.0000    0.0000    0.2291    0.0792   -0.1785   -0.1552
       54 C7     *s        -0.0009    0.0008   -0.0063   -0.0134    0.0004   -0.0011    0.1603    0.0432   -0.1309   -0.1329
       55 C7     2px        0.0001   -0.0001    0.0002   -0.0000    0.0000   -0.0000   -0.0308    0.0753    0.1054   -0.1229
       56 C7     *px       -0.0000    0.0014   -0.0014    0.0013    0.0001    0.0007    0.0029    0.0250    0.0317   -0.0393
       57 C7     2py        0.0000    0.0001   -0.0000   -0.0002    0.0000   -0.0000   -0.0457   -0.0175    0.0319    0.0109
       58 C7     *py        0.0004   -0.0004    0.0004    0.0016   -0.0004    0.0004    0.0026    0.0090   -0.0148   -0.0103
       59 C7     2pz        0.0000    0.0000   -0.0000   -0.0000    0.0000   -0.0000   -0.0059   -0.0026    0.0038    0.0019
       60 C7     *pz        0.0001   -0.0001    0.0001    0.0002   -0.0001    0.0001    0.0003    0.0011   -0.0021   -0.0012
       61 C7     *200      -0.0005   -0.0003   -0.0005   -0.0005   -0.0001    0.0000    0.0070    0.0033   -0.0016   -0.0010
       62 C7     *110       0.0002    0.0001   -0.0000    0.0001    0.0000   -0.0000    0.0016   -0.0060   -0.0086    0.0084
       63 C7     *101       0.0000    0.0000   -0.0000    0.0000    0.0000   -0.0000    0.0001   -0.0008   -0.0011    0.0011
       64 C7     *020      -0.0006   -0.0003   -0.0007   -0.0006   -0.0000    0.0000    0.0030    0.0020   -0.0030   -0.0056
       65 C7     *011       0.0000   -0.0000    0.0000    0.0001   -0.0000    0.0000    0.0023    0.0011   -0.0018   -0.0024
       66 C7     *002      -0.0006   -0.0002   -0.0008   -0.0009    0.0000    0.0000   -0.0056   -0.0022    0.0037    0.0033
       67 H8     1s        -0.0002    0.0000   -0.0001    0.0001    0.0000    0.0000    0.0580   -0.0208   -0.0495    0.0597
       68 H8     *s         0.0002   -0.0002    0.0011   -0.0015    0.0001    0.0002    0.0059   -0.0008   -0.0032    0.0189
       69 C9     1s         0.6017    0.6934   -0.3586   -0.1255    0.0529   -0.0376   -0.0911   -0.1147   -0.0584    0.0523
       70 C9     2s         0.0166    0.0192   -0.0099   -0.0033    0.0017   -0.0012    0.1750    0.2205    0.1134   -0.1043
       71 C9     *s        -0.0062   -0.0086    0.0064    0.0043   -0.0043    0.0029    0.1082    0.1549    0.0723   -0.0947
       72 C9     2px       -0.0001   -0.0001    0.0001    0.0001    0.0001   -0.0001   -0.0166    0.0429    0.1286    0.1602
       73 C9     *px       -0.0007    0.0004   -0.0007   -0.0011   -0.0012    0.0009   -0.0120   -0.0009    0.0305    0.0497
       74 C9     2py        0.0001    0.0001   -0.0001   -0.0001    0.0001   -0.0001    0.0358    0.0429    0.0196    0.0014
       75 C9     *py       -0.0007   -0.0009    0.0005    0.0007   -0.0007    0.0004   -0.0060   -0.0079   -0.0102    0.0118
       76 C9     2pz        0.0000    0.0000   -0.0000   -0.0000    0.0000   -0.0000    0.0048    0.0055    0.0021   -0.0005
       77 C9     *pz       -0.0001   -0.0001    0.0001    0.0001   -0.0001    0.0000   -0.0007   -0.0010   -0.0015    0.0014
       78 C9     *200      -0.0006   -0.0007    0.0002   -0.0001    0.0001   -0.0001    0.0059    0.0052   -0.0002   -0.0019
       79 C9     *110       0.0002    0.0001    0.0001    0.0001   -0.0000    0.0000   -0.0020    0.0031    0.0100    0.0119
       80 C9     *101       0.0000    0.0000    0.0000    0.0000   -0.0000    0.0000   -0.0004    0.0003    0.0013    0.0016
       81 C9     *020      -0.0007   -0.0008    0.0003   -0.0000    0.0001   -0.0001    0.0025    0.0032    0.0014   -0.0043
       82 C9     *011       0.0000    0.0001   -0.0001   -0.0000    0.0000   -0.0000    0.0019    0.0022    0.0009   -0.0019
       83 C9     *002      -0.0009   -0.0010    0.0004    0.0001   -0.0000    0.0000   -0.0044   -0.0051   -0.0020    0.0026
       84 H10    1s        -0.0002   -0.0000   -0.0001   -0.0001    0.0000    0.0000    0.0580    0.0208   -0.0495   -0.0597
       85 H10    *s         0.0002    0.0002    0.0011    0.0015    0.0002   -0.0002    0.0059    0.0008   -0.0032   -0.0189
       86 C11    1s         0.0380    0.0445   -0.0247   -0.0101   -0.8100    0.5753   -0.0560   -0.0998   -0.1058   -0.0942
       87 C11    2s         0.0008    0.0010   -0.0007   -0.0003   -0.0224    0.0159    0.1052    0.1880    0.1998    0.1815
       88 C11    *s         0.0025    0.0024   -0.0012   -0.0006    0.0097   -0.0070    0.0852    0.1505    0.1696    0.1709
       89 C11    2px        0.0001    0.0001   -0.0000   -0.0000    0.0000   -0.0000   -0.0477   -0.0685   -0.0426    0.0624
       90 C11    *px       -0.0012   -0.0011    0.0004    0.0003   -0.0007    0.0006   -0.0075   -0.0090   -0.0059    0.0289
       91 C11    2py        0.0000    0.0000   -0.0001   -0.0000    0.0000    0.0000   -0.0189   -0.0328   -0.0316    0.0068
       92 C11    *py       -0.0002   -0.0001    0.0003   -0.0000   -0.0003    0.0002   -0.0039   -0.0019    0.0039    0.0070
       93 C11    2pz        0.0000    0.0000   -0.0000   -0.0000    0.0000    0.0000   -0.0023   -0.0041   -0.0040    0.0006
       94 C11    *pz       -0.0000   -0.0000    0.0000   -0.0000   -0.0000    0.0000   -0.0005   -0.0002    0.0005    0.0008
       95 C11    *200      -0.0001   -0.0001    0.0001    0.0001    0.0008   -0.0006    0.0035    0.0056    0.0051    0.0028
       96 C11    *110      -0.0000   -0.0000    0.0000    0.0000   -0.0001    0.0001    0.0029    0.0040    0.0025   -0.0048
       97 C11    *101      -0.0000   -0.0000    0.0000    0.0000   -0.0000    0.0000    0.0003    0.0004    0.0002   -0.0007
       98 C11    *020      -0.0001   -0.0002    0.0001    0.0001    0.0009   -0.0006    0.0010    0.0026    0.0039    0.0066
       99 C11    *011      -0.0000   -0.0000    0.0000    0.0000   -0.0001    0.0001    0.0009    0.0019    0.0024    0.0030
      100 C11    *002      -0.0001   -0.0001    0.0000    0.0000    0.0012   -0.0008   -0.0026   -0.0046   -0.0050   -0.0044
      101 H12    1s        -0.0002   -0.0001   -0.0000   -0.0000    0.0000   -0.0000    0.0439    0.0578    0.0311   -0.0450
      102 H12    *s         0.0009    0.0012   -0.0010   -0.0003    0.0002   -0.0002    0.0046    0.0053    0.0030   -0.0135
      103 H13    1s        -0.0001   -0.0001   -0.0000    0.0000    0.0001   -0.0001    0.0272    0.0510    0.0594    0.0817
      104 H13    *s        -0.0001   -0.0002   -0.0000   -0.0000   -0.0017    0.0012    0.0044    0.0081    0.0100    0.0332
      105 H14    1s        -0.0000   -0.0000    0.0000   -0.0000    0.0001   -0.0001    0.0234    0.0490    0.0653    0.0997
      106 H14    *s         0.0002    0.0002    0.0001   -0.0000   -0.0017    0.0012    0.0021    0.0089    0.0189    0.0414

          Orbital           11        12        13        14        15        16        17        18        19        20    
          Energy           -0.7586   -0.7535   -0.6573   -0.6301   -0.5909   -0.5599   -0.5360   -0.5154   -0.4874   -0.4591
          Occ. No.          2.0000    2.0000    2.0000    2.0000    2.0000    2.0000    2.0000    2.0000    2.0000    2.0000

        1 C1     1s         0.0226   -0.0696   -0.0126    0.0104   -0.0032    0.0063    0.0165   -0.0081   -0.0050   -0.0000
        2 C1     2s        -0.0441    0.1351    0.0246   -0.0188    0.0086   -0.0150   -0.0357    0.0172    0.0108    0.0000
        3 C1     *s        -0.0430    0.1419    0.0384   -0.0339   -0.0188    0.0012   -0.0247    0.0038    0.0219    0.0000
        4 C1     2px        0.0185   -0.1156   -0.1688    0.0507    0.2952   -0.0693   -0.1829   -0.0415    0.1347    0.0006
        5 C1     *px        0.0090   -0.0469   -0.0703    0.0156    0.1204   -0.0149   -0.0704   -0.0468    0.0841    0.0004
        6 C1     2py        0.0823   -0.0973    0.1102    0.2065   -0.0149   -0.2494   -0.0208    0.2120   -0.1022   -0.0185
        7 C1     *py        0.0263   -0.0304    0.0529    0.0888   -0.0210   -0.1273   -0.0010    0.1246   -0.0678   -0.0133
        8 C1     2pz        0.0108   -0.0124    0.0152    0.0271   -0.0031   -0.0327   -0.0020    0.0282   -0.0140    0.1404
        9 C1     *pz        0.0034   -0.0038    0.0073    0.0117   -0.0032   -0.0167    0.0001    0.0166   -0.0093    0.1009
       10 C1     *200      -0.0002    0.0012    0.0023    0.0032   -0.0026   -0.0070    0.0008    0.0101   -0.0084    0.0000
       11 C1     *110       0.0038   -0.0100   -0.0088    0.0036    0.0175    0.0001   -0.0101   -0.0101    0.0139   -0.0014
       12 C1     *101       0.0005   -0.0014   -0.0012    0.0005    0.0023    0.0001   -0.0013   -0.0014    0.0019    0.0109
       13 C1     *020      -0.0030    0.0076    0.0005   -0.0069   -0.0029    0.0104    0.0024   -0.0111    0.0072   -0.0007
       14 C1     *011      -0.0011    0.0030    0.0003   -0.0021   -0.0010    0.0028    0.0007   -0.0028    0.0018    0.0050
       15 C1     *002       0.0012   -0.0034   -0.0006    0.0007    0.0005   -0.0000    0.0000   -0.0003    0.0001    0.0006
       16 C2     1s        -0.0484    0.0877    0.0131   -0.0143   -0.0197   -0.0125    0.0059    0.0042    0.0153    0.0000
       17 C2     2s         0.0946   -0.1743   -0.0303    0.0268    0.0417    0.0240   -0.0135   -0.0065   -0.0334   -0.0000
       18 C2     *s         0.0980   -0.1695   -0.0088    0.0308    0.0238    0.0473    0.0150   -0.0129   -0.0515   -0.0000
       19 C2     2px       -0.0175   -0.0226   -0.0297   -0.1850   -0.1735    0.1899    0.1317    0.0246   -0.1958    0.0008
       20 C2     *px       -0.0006   -0.0129   -0.0044   -0.0547   -0.0668    0.0564    0.0646    0.0189   -0.0768    0.0005
       21 C2     2py        0.1354   -0.0931    0.1993    0.0878   -0.1616    0.0972    0.1146   -0.2068    0.1533   -0.0267
       22 C2     *py        0.0509   -0.0493    0.0692    0.0411   -0.0649    0.0559    0.0483   -0.1361    0.1052   -0.0180
       23 C2     2pz        0.0179   -0.0122    0.0264    0.0123   -0.0206    0.0121    0.0146   -0.0274    0.0210    0.2023
       24 C2     *pz        0.0067   -0.0065    0.0092    0.0056   -0.0083    0.0072    0.0061   -0.0180    0.0142    0.1363
       25 C2     *200      -0.0009    0.0017    0.0001   -0.0024    0.0007   -0.0037   -0.0052    0.0102   -0.0074    0.0000
       26 C2     *110       0.0038    0.0017    0.0013    0.0047    0.0125   -0.0032   -0.0112   -0.0063    0.0139   -0.0001
       27 C2     *101       0.0005    0.0002    0.0002    0.0006    0.0016   -0.0004   -0.0014   -0.0009    0.0019    0.0002
       28 C2     *020       0.0051   -0.0081    0.0028    0.0026   -0.0045    0.0073    0.0078   -0.0132    0.0081    0.0011
       29 C2     *011       0.0019   -0.0032    0.0007    0.0008   -0.0012    0.0021    0.0022   -0.0036    0.0020   -0.0084
       30 C2     *002      -0.0022    0.0037    0.0000   -0.0005   -0.0002   -0.0006   -0.0001    0.0002    0.0004   -0.0011
       31 H3     1s        -0.0077    0.0879    0.1270    0.0242   -0.1615   -0.0508    0.0808    0.1122   -0.1197   -0.0000
       32 H3     *s        -0.0028    0.0434    0.0798    0.0138   -0.1221   -0.0308    0.0735    0.0847   -0.1041   -0.0000
       33 H4     1s        -0.0648    0.1163   -0.0450   -0.1331   -0.0007    0.1583    0.0083   -0.1435    0.0833   -0.0000
       34 H4     *s        -0.0374    0.0644   -0.0273   -0.0886   -0.0085    0.1194    0.0192   -0.1220    0.0757   -0.0000
       35 C5     1s         0.0706   -0.0343   -0.0048   -0.0000    0.0369    0.0128    0.0109   -0.0161    0.0094   -0.0000
       36 C5     2s        -0.1388    0.0663    0.0105   -0.0033   -0.0769   -0.0234   -0.0243    0.0348   -0.0213    0.0000
       37 C5     *s        -0.1398    0.0654   -0.0127   -0.0002   -0.0722   -0.0393   -0.0044    0.0375   -0.0203    0.0000
       38 C5     2px        0.0172    0.1121    0.2107    0.1088    0.0322   -0.0370   -0.2218   -0.0943    0.2011    0.0011
       39 C5     *px        0.0125    0.0351    0.0735    0.0355    0.0277   -0.0238   -0.0684   -0.0181    0.0876    0.0007
       40 C5     2py        0.1788   -0.0294    0.0995   -0.1947    0.0171    0.1502   -0.2260    0.1090   -0.1460   -0.0354
       41 C5     *py        0.0691   -0.0185    0.0302   -0.0901    0.0212    0.0889   -0.1282    0.0606   -0.0938   -0.0247
       42 C5     2pz        0.0235   -0.0043    0.0123   -0.0261    0.0021    0.0200   -0.0289    0.0148   -0.0201    0.2682
       43 C5     *pz        0.0091   -0.0026    0.0037   -0.0120    0.0027    0.0118   -0.0166    0.0081   -0.0127    0.1870
       44 C5     *200       0.0009   -0.0019   -0.0008   -0.0018    0.0045    0.0047   -0.0088    0.0025   -0.0084    0.0000
       45 C5     *110       0.0014    0.0116    0.0088    0.0020    0.0047   -0.0086   -0.0099   -0.0008    0.0148   -0.0011
       46 C5     *101       0.0002    0.0015    0.0012    0.0003    0.0006   -0.0012   -0.0012   -0.0001    0.0020    0.0085
       47 C5     *020      -0.0076    0.0022   -0.0030    0.0043   -0.0054   -0.0070    0.0138   -0.0031    0.0092   -0.0014
       48 C5     *011      -0.0029    0.0009   -0.0009    0.0012   -0.0017   -0.0020    0.0038   -0.0007    0.0023    0.0108
       49 C5     *002       0.0032   -0.0012    0.0002   -0.0004    0.0010    0.0004   -0.0001   -0.0003    0.0003    0.0014
       50 H6     1s         0.1141   -0.1263    0.0998    0.0622   -0.0823    0.0806    0.0811   -0.1539    0.0985   -0.0000
       51 H6     *s         0.0603   -0.0583    0.0683    0.0362   -0.0642    0.0573    0.0773   -0.1201    0.0871   -0.0000
       52 C7     1s        -0.0706   -0.0343   -0.0048    0.0000   -0.0369    0.0128    0.0109    0.0161    0.0094   -0.0000
       53 C7     2s         0.1388    0.0663    0.0105    0.0033    0.0769   -0.0234   -0.0243   -0.0348   -0.0213    0.0000
       54 C7     *s         0.1398    0.0654   -0.0127    0.0002    0.0722   -0.0393   -0.0044   -0.0375   -0.0203    0.0000
       55 C7     2px        0.0172   -0.1121   -0.2107    0.1088    0.0322    0.0370    0.2218   -0.0943   -0.2011    0.0011
       56 C7     *px        0.0125   -0.0351   -0.0735    0.0355    0.0277    0.0238    0.0684   -0.0181   -0.0876    0.0007
       57 C7     2py        0.1788    0.0294   -0.0995   -0.1947    0.0171   -0.1502    0.2261    0.1090    0.1460   -0.0354
       58 C7     *py        0.0691    0.0186   -0.0302   -0.0901    0.0212   -0.0889    0.1282    0.0606    0.0938   -0.0247
       59 C7     2pz        0.0235    0.0043   -0.0123   -0.0261    0.0021   -0.0200    0.0290    0.0148    0.0201    0.2682
       60 C7     *pz        0.0091    0.0026   -0.0037   -0.0120    0.0027   -0.0118    0.0167    0.0081    0.0127    0.1870
       61 C7     *200      -0.0009   -0.0019   -0.0008    0.0018   -0.0045    0.0047   -0.0088   -0.0025   -0.0084   -0.0000
       62 C7     *110      -0.0014    0.0116    0.0088   -0.0020   -0.0047   -0.0086   -0.0099    0.0008    0.0148    0.0011
       63 C7     *101      -0.0002    0.0015    0.0012   -0.0003   -0.0006   -0.0012   -0.0012    0.0001    0.0020   -0.0085
       64 C7     *020       0.0076    0.0022   -0.0030   -0.0043    0.0054   -0.0070    0.0138    0.0031    0.0092    0.0014
       65 C7     *011       0.0029    0.0009   -0.0009   -0.0012    0.0017   -0.0020    0.0038    0.0007    0.0023   -0.0108
       66 C7     *002      -0.0032   -0.0012    0.0002    0.0004   -0.0010    0.0004   -0.0001    0.0003    0.0003   -0.0014
       67 H8     1s        -0.1575    0.0435   -0.0557    0.1102   -0.0509   -0.1081    0.1552   -0.0555    0.1040   -0.0000
       68 H8     *s        -0.0830    0.0192   -0.0396    0.0683   -0.0304   -0.0698    0.1303   -0.0442    0.0991   -0.0000
       69 C9     1s         0.0484    0.0877    0.0131    0.0143    0.0197   -0.0125    0.0059   -0.0042    0.0153    0.0000
       70 C9     2s        -0.0946   -0.1743   -0.0303   -0.0268   -0.0417    0.0240   -0.0135    0.0065   -0.0334    0.0000
       71 C9     *s        -0.0980   -0.1695   -0.0088   -0.0308   -0.0238    0.0473    0.0150    0.0129   -0.0515   -0.0000
       72 C9     2px       -0.0175    0.0226    0.0297   -0.1850   -0.1736   -0.1899   -0.1317    0.0246    0.1958    0.0008
       73 C9     *px       -0.0006    0.0129    0.0044   -0.0547   -0.0669   -0.0564   -0.0646    0.0189    0.0768    0.0006
       74 C9     2py        0.1354    0.0931   -0.1993    0.0878   -0.1616   -0.0971   -0.1146   -0.2068   -0.1533   -0.0267
       75 C9     *py        0.0509    0.0493   -0.0692    0.0411   -0.0649   -0.0559   -0.0483   -0.1361   -0.1052   -0.0180
       76 C9     2pz        0.0179    0.0122   -0.0264    0.0123   -0.0206   -0.0121   -0.0146   -0.0274   -0.0210    0.2024
       77 C9     *pz        0.0067    0.0065   -0.0092    0.0056   -0.0083   -0.0071   -0.0061   -0.0180   -0.0142    0.1364
       78 C9     *200       0.0009    0.0017    0.0001    0.0024   -0.0007   -0.0037   -0.0052   -0.0102   -0.0074   -0.0000
       79 C9     *110      -0.0038    0.0017    0.0013   -0.0047   -0.0125   -0.0032   -0.0112    0.0063    0.0139    0.0001
       80 C9     *101      -0.0005    0.0002    0.0002   -0.0006   -0.0016   -0.0004   -0.0014    0.0009    0.0019   -0.0002
       81 C9     *020      -0.0051   -0.0081    0.0028   -0.0026    0.0045    0.0073    0.0078    0.0132    0.0081   -0.0011
       82 C9     *011      -0.0019   -0.0032    0.0007   -0.0008    0.0012    0.0021    0.0022    0.0036    0.0020    0.0084
       83 C9     *002       0.0022    0.0037    0.0000    0.0005    0.0002   -0.0006   -0.0001   -0.0002    0.0004    0.0011
       84 H10    1s         0.1575    0.0436   -0.0557   -0.1102    0.0509   -0.1082    0.1552    0.0555    0.1040   -0.0000
       85 H10    *s         0.0830    0.0192   -0.0396   -0.0683    0.0304   -0.0698    0.1304    0.0442    0.0991   -0.0000
       86 C11    1s        -0.0226   -0.0696   -0.0126   -0.0104    0.0032    0.0063    0.0165    0.0081   -0.0050   -0.0000
       87 C11    2s         0.0441    0.1352    0.0246    0.0188   -0.0086   -0.0150   -0.0357   -0.0172    0.0108    0.0000
       88 C11    *s         0.0430    0.1419    0.0384    0.0339    0.0188    0.0012   -0.0247   -0.0038    0.0219    0.0000
       89 C11    2px        0.0185    0.1156    0.1688    0.0507    0.2952    0.0693    0.1829   -0.0415   -0.1347    0.0006
       90 C11    *px        0.0089    0.0469    0.0703    0.0156    0.1204    0.0149    0.0704   -0.0468   -0.0841    0.0004
       91 C11    2py        0.0823    0.0973   -0.1102    0.2065   -0.0149    0.2494    0.0208    0.2120    0.1022   -0.0185
       92 C11    *py        0.0263    0.0304   -0.0529    0.0888   -0.0210    0.1273    0.0010    0.1246    0.0678   -0.0133
       93 C11    2pz        0.0108    0.0124   -0.0152    0.0270   -0.0031    0.0326    0.0020    0.0281    0.0140    0.1405
       94 C11    *pz        0.0034    0.0038   -0.0073    0.0117   -0.0033    0.0167   -0.0001    0.0166    0.0093    0.1009
       95 C11    *200       0.0002    0.0012    0.0023   -0.0032    0.0026   -0.0070    0.0008   -0.0101   -0.0084   -0.0000
       96 C11    *110      -0.0038   -0.0100   -0.0088   -0.0036   -0.0175    0.0001   -0.0101    0.0101    0.0139    0.0014
       97 C11    *101      -0.0005   -0.0014   -0.0012   -0.0005   -0.0023    0.0001   -0.0013    0.0014    0.0019   -0.0109
       98 C11    *020       0.0030    0.0076    0.0005    0.0069    0.0029    0.0104    0.0024    0.0111    0.0072    0.0007
       99 C11    *011       0.0011    0.0030    0.0003    0.0021    0.0010    0.0028    0.0007    0.0028    0.0018   -0.0050
      100 C11    *002      -0.0012   -0.0034   -0.0006   -0.0007   -0.0005   -0.0000    0.0000    0.0003    0.0001   -0.0006
      101 H12    1s        -0.1141   -0.1263    0.0998   -0.0622    0.0823    0.0806    0.0811    0.1539    0.0985   -0.0000
      102 H12    *s        -0.0603   -0.0583    0.0683   -0.0362    0.0642    0.0573    0.0773    0.1201    0.0871   -0.0000
      103 H13    1s         0.0647    0.1163   -0.0450    0.1331    0.0007    0.1583    0.0083    0.1435    0.0833    0.0000
      104 H13    *s         0.0374    0.0644   -0.0272    0.0886    0.0086    0.1194    0.0192    0.1220    0.0757   -0.0000
      105 H14    1s         0.0077    0.0879    0.1270   -0.0242    0.1615   -0.0508    0.0808   -0.1122   -0.1197   -0.0000
      106 H14    *s         0.0028    0.0434    0.0798   -0.0137    0.1221   -0.0308    0.0735   -0.0847   -0.1041   -0.0000

          Orbital           21        22        23        24        25        26        27        28        29        30    
          Energy           -0.3890   -0.2899    0.1077    0.2153    0.2420    0.2675    0.2685    0.2731    0.2929    0.3058
          Occ. No.          2.0000    2.0000    0.0000    0.0000    0.0000    0.0000    0.0000    0.0000    0.0000    0.0000

        1 C1     1s         0.0000   -0.0000   -0.0000   -0.0000    0.0129    0.0665   -0.0002   -0.0628   -0.0576    0.0170
        2 C1     2s        -0.0000    0.0000    0.0000    0.0000   -0.0110   -0.0716    0.0002    0.0606    0.0686   -0.0277
        3 C1     *s        -0.0000   -0.0000    0.0000    0.0000   -0.2535   -1.1383    0.0029    1.1866    0.8847   -0.3033
        4 C1     2px       -0.0010    0.0010   -0.0009    0.0008   -0.0255    0.1163   -0.0006   -0.1271    0.0215    0.0214
        5 C1     *px       -0.0008    0.0009   -0.0016    0.0020   -0.0611    0.4888   -0.0027   -0.4479   -0.0098    0.1553
        6 C1     2py        0.0326   -0.0323    0.0316   -0.0283    0.0938    0.0376    0.0106   -0.0148   -0.1366   -0.0994
        7 C1     *py        0.0265   -0.0307    0.0525   -0.0674    0.2526    0.2136    0.0484   -0.0925   -0.3960   -0.4840
        8 C1     2pz       -0.2470    0.2448   -0.2395    0.2142    0.0125    0.0043   -0.0807   -0.0015   -0.0181   -0.0132
        9 C1     *pz       -0.2009    0.2324   -0.3980    0.5103    0.0336    0.0253   -0.3704   -0.0105   -0.0523   -0.0645
       10 C1     *200      -0.0001    0.0000    0.0000   -0.0001   -0.0031    0.0027    0.0000   -0.0030    0.0021   -0.0007
       11 C1     *110       0.0020   -0.0014   -0.0012    0.0022    0.0040   -0.0073   -0.0010    0.0075   -0.0063   -0.0001
       12 C1     *101      -0.0156    0.0106    0.0088   -0.0173    0.0006   -0.0009    0.0083    0.0010   -0.0009   -0.0000
       13 C1     *020       0.0011   -0.0009   -0.0002    0.0015    0.0026    0.0010   -0.0016   -0.0003   -0.0050    0.0021
       14 C1     *011      -0.0079    0.0066    0.0017   -0.0111    0.0003   -0.0002    0.0121    0.0006   -0.0008    0.0008
       15 C1     *002      -0.0010    0.0008    0.0002   -0.0014    0.0013    0.0022    0.0016   -0.0026   -0.0019   -0.0008
       16 C2     1s        -0.0000    0.0000   -0.0000   -0.0000   -0.0337    0.0335   -0.0001   -0.0290    0.0328    0.0260
       17 C2     2s         0.0000   -0.0000   -0.0000    0.0000    0.0346   -0.0272    0.0001    0.0130   -0.0478   -0.0375
       18 C2     *s        -0.0000    0.0000    0.0000    0.0000    0.5100   -0.7791    0.0019    0.8484   -0.3744   -0.2388
       19 C2     2px       -0.0011    0.0006    0.0006   -0.0011   -0.0031   -0.0332    0.0008    0.0100    0.0490   -0.0655
       20 C2     *px       -0.0008    0.0006    0.0010   -0.0022   -0.0794   -0.1513    0.0027    0.2815    0.3048   -0.4485
       21 C2     2py        0.0353   -0.0213   -0.0201    0.0378    0.1250   -0.0860   -0.0248    0.1136   -0.1323   -0.0015
       22 C2     *py        0.0272   -0.0193   -0.0334    0.0750    0.3317   -0.3031   -0.0782    0.4099   -0.6014    0.2454
       23 C2     2pz       -0.2674    0.1613    0.1524   -0.2863    0.0165   -0.0107    0.1896    0.0150   -0.0177    0.0000
       24 C2     *pz       -0.2062    0.1465    0.2531   -0.5683    0.0441   -0.0379    0.5982    0.0531   -0.0806    0.0342
       25 C2     *200       0.0000   -0.0001    0.0001   -0.0000    0.0049   -0.0016   -0.0000    0.0023    0.0002   -0.0072
       26 C2     *110      -0.0016    0.0031   -0.0033    0.0008   -0.0004   -0.0021    0.0008   -0.0011    0.0119   -0.0114
       27 C2     *101       0.0121   -0.0233    0.0246   -0.0066   -0.0001   -0.0003   -0.0058   -0.0002    0.0016   -0.0015
       28 C2     *020      -0.0013    0.0006    0.0001    0.0014   -0.0060    0.0028   -0.0023   -0.0023    0.0026    0.0091
       29 C2     *011       0.0097   -0.0043   -0.0009   -0.0106   -0.0010    0.0006    0.0173   -0.0002    0.0004    0.0026
       30 C2     *002       0.0013   -0.0005   -0.0002   -0.0014   -0.0023    0.0009    0.0023   -0.0016    0.0011   -0.0005
       31 H3     1s         0.0000   -0.0000    0.0000   -0.0000   -0.0073    0.0269   -0.0001   -0.0266    0.0070   -0.0146
       32 H3     *s         0.0000    0.0000   -0.0000   -0.0000   -0.1993    0.9434   -0.0024   -0.9928   -0.0358    0.5224
       33 H4     1s         0.0000   -0.0000    0.0000   -0.0000    0.0114    0.0039   -0.0000   -0.0043   -0.0325    0.0224
       34 H4     *s         0.0000    0.0000   -0.0000   -0.0000    0.5218    0.7486   -0.0019   -0.5961   -1.1086   -0.3857
       35 C5     1s        -0.0000    0.0000   -0.0000    0.0000    0.0361    0.0235   -0.0001   -0.0072    0.0222   -0.0665
       36 C5     2s         0.0000    0.0000   -0.0000   -0.0000   -0.0409   -0.0393    0.0001    0.0058   -0.0145    0.0594
       37 C5     *s         0.0000   -0.0000    0.0000   -0.0001   -0.4580   -0.3237    0.0008    0.2042   -0.6328    1.4520
       38 C5     2px       -0.0003   -0.0010    0.0010    0.0004   -0.0040   -0.0505   -0.0009   -0.0277    0.0194   -0.0449
       39 C5     *px       -0.0002   -0.0009    0.0014    0.0008    0.0551   -0.2387   -0.0025    0.1890    0.3526   -0.2612
       40 C5     2py        0.0094    0.0335   -0.0318   -0.0144    0.1482    0.0449    0.0336   -0.0827    0.0177   -0.1498
       41 C5     *py        0.0069    0.0309   -0.0452   -0.0245    0.4809    0.2153    0.1039   -0.6664    0.0440   -0.7197
       42 C5     2pz       -0.0709   -0.2537    0.2406    0.1091    0.0196    0.0055   -0.2553   -0.0108    0.0023   -0.0196
       43 C5     *pz       -0.0523   -0.2339    0.3424    0.1858    0.0633    0.0273   -0.7908   -0.0888    0.0044   -0.0940
       44 C5     *200       0.0000   -0.0001   -0.0001    0.0001   -0.0046    0.0040    0.0000   -0.0056    0.0007   -0.0001
       45 C5     *110      -0.0016    0.0027    0.0027   -0.0024    0.0011    0.0124   -0.0005   -0.0052   -0.0018    0.0126
       46 C5     *101       0.0118   -0.0210   -0.0204    0.0183    0.0002    0.0016    0.0040   -0.0006   -0.0002    0.0017
       47 C5     *020       0.0004    0.0010   -0.0000    0.0005    0.0062   -0.0017   -0.0032    0.0051   -0.0006   -0.0023
       48 C5     *011      -0.0031   -0.0073    0.0003   -0.0041    0.0010   -0.0004    0.0237    0.0014   -0.0003   -0.0003
       49 C5     *002      -0.0005   -0.0009    0.0001   -0.0006    0.0024   -0.0001    0.0032   -0.0001    0.0005   -0.0015
       50 H6     1s         0.0000    0.0000   -0.0000   -0.0000   -0.0269    0.0016   -0.0000    0.0007    0.0131    0.0665
       51 H6     *s         0.0000    0.0000   -0.0000   -0.0000   -0.8197    0.6704   -0.0017   -0.7864    0.9860    0.1750
       52 C7     1s         0.0000   -0.0000   -0.0000    0.0000   -0.0361   -0.0235    0.0001   -0.0072    0.0222   -0.0665
       53 C7     2s        -0.0000    0.0000    0.0000   -0.0000    0.0409    0.0393   -0.0001    0.0058   -0.0145    0.0594
       54 C7     *s        -0.0000    0.0000   -0.0000   -0.0001    0.4580    0.3237   -0.0009    0.2042   -0.6328    1.4520
       55 C7     2px        0.0003   -0.0010   -0.0010    0.0004   -0.0040   -0.0505    0.0011    0.0277   -0.0194    0.0449
       56 C7     *px        0.0002   -0.0009   -0.0014    0.0007    0.0551   -0.2386    0.0038   -0.1890   -0.3526    0.2612
       57 C7     2py       -0.0094    0.0335    0.0318   -0.0144    0.1483    0.0447   -0.0338    0.0827   -0.0178    0.1498
       58 C7     *py       -0.0069    0.0309    0.0452   -0.0245    0.4809    0.2148   -0.1050    0.6664   -0.0440    0.7197
       59 C7     2pz        0.0709   -0.2537   -0.2406    0.1091    0.0196    0.0068    0.2553    0.0108   -0.0023    0.0196
       60 C7     *pz        0.0522   -0.2339   -0.3424    0.1857    0.0632    0.0314    0.7907    0.0888   -0.0044    0.0940
       61 C7     *200       0.0000    0.0001   -0.0001   -0.0001    0.0046   -0.0040    0.0000   -0.0056    0.0007   -0.0001
       62 C7     *110      -0.0016   -0.0027    0.0027    0.0024   -0.0011   -0.0124   -0.0004   -0.0052   -0.0018    0.0126
       63 C7     *101       0.0118    0.0210   -0.0204   -0.0183   -0.0002   -0.0016    0.0040   -0.0006   -0.0002    0.0017
       64 C7     *020       0.0004   -0.0010   -0.0000   -0.0005   -0.0062    0.0017   -0.0032    0.0051   -0.0006   -0.0023
       65 C7     *011      -0.0031    0.0073    0.0003    0.0041   -0.0010    0.0006    0.0237    0.0014   -0.0003   -0.0003
       66 C7     *002      -0.0005    0.0009    0.0001    0.0006   -0.0024    0.0001    0.0032   -0.0001    0.0005   -0.0015
       67 H8     1s         0.0000   -0.0000   -0.0000    0.0000    0.0305   -0.0129    0.0000    0.0412   -0.0032   -0.0130
       68 H8     *s         0.0000   -0.0000   -0.0000    0.0000    0.9995    0.3774   -0.0009   -0.5941    0.2577   -1.4044
       69 C9     1s        -0.0000    0.0000    0.0000   -0.0000    0.0337   -0.0335    0.0001   -0.0290    0.0328    0.0260
       70 C9     2s         0.0000   -0.0000   -0.0000    0.0000   -0.0346    0.0272   -0.0001    0.0130   -0.0478   -0.0375
       71 C9     *s         0.0000    0.0000   -0.0000    0.0000   -0.5100    0.7792   -0.0021    0.8483   -0.3744   -0.2387
       72 C9     2px        0.0011    0.0006   -0.0006   -0.0012   -0.0031   -0.0332   -0.0007   -0.0100   -0.0490    0.0655
       73 C9     *px        0.0008    0.0006   -0.0010   -0.0023   -0.0794   -0.1514   -0.0020   -0.2815   -0.3048    0.4485
       74 C9     2py       -0.0353   -0.0213    0.0201    0.0378    0.1250   -0.0859    0.0253   -0.1136    0.1323    0.0015
       75 C9     *py       -0.0272   -0.0193    0.0334    0.0750    0.3317   -0.3027    0.0798   -0.4099    0.6014   -0.2454
       76 C9     2pz        0.2674    0.1613   -0.1524   -0.2863    0.0165   -0.0117   -0.1896   -0.0150    0.0177   -0.0001
       77 C9     *pz        0.2062    0.1465   -0.2531   -0.5683    0.0441   -0.0409   -0.5980   -0.0530    0.0806   -0.0342
       78 C9     *200       0.0000    0.0001    0.0001    0.0000   -0.0049    0.0016   -0.0000    0.0023    0.0002   -0.0072
       79 C9     *110      -0.0016   -0.0031   -0.0033   -0.0008    0.0004    0.0021    0.0008   -0.0011    0.0119   -0.0114
       80 C9     *101       0.0121    0.0233    0.0246    0.0066    0.0001    0.0002   -0.0058   -0.0002    0.0016   -0.0015
       81 C9     *020      -0.0013   -0.0006    0.0001   -0.0014    0.0060   -0.0029   -0.0023   -0.0023    0.0026    0.0091
       82 C9     *011       0.0097    0.0043   -0.0009    0.0106    0.0010   -0.0005    0.0173   -0.0002    0.0004    0.0026
       83 C9     *002       0.0013    0.0005   -0.0002    0.0014    0.0023   -0.0009    0.0024   -0.0016    0.0011   -0.0005
       84 H10    1s        -0.0000   -0.0000    0.0000    0.0000   -0.0305    0.0129   -0.0000    0.0412   -0.0032   -0.0130
       85 H10    *s        -0.0000   -0.0000    0.0000    0.0000   -0.9995   -0.3774    0.0010   -0.5941    0.2577   -1.4044
       86 C11    1s        -0.0000    0.0000    0.0000   -0.0000   -0.0129   -0.0665    0.0002   -0.0628   -0.0576    0.0170
       87 C11    2s         0.0000   -0.0000   -0.0000    0.0000    0.0110    0.0716   -0.0002    0.0606    0.0686   -0.0277
       88 C11    *s         0.0000   -0.0000   -0.0000    0.0000    0.2535    1.1383   -0.0031    1.1866    0.8847   -0.3034
       89 C11    2px        0.0010    0.0010    0.0010    0.0009   -0.0255    0.1163    0.0000    0.1271   -0.0215   -0.0214
       90 C11    *px        0.0008    0.0009    0.0016    0.0021   -0.0611    0.4888    0.0002    0.4479    0.0098   -0.1553
       91 C11    2py       -0.0326   -0.0323   -0.0316   -0.0283    0.0938    0.0375   -0.0107    0.0148    0.1366    0.0994
       92 C11    *py       -0.0265   -0.0307   -0.0525   -0.0673    0.2526    0.2133   -0.0494    0.0925    0.3961    0.4840
       93 C11    2pz        0.2470    0.2448    0.2395    0.2142    0.0125    0.0047    0.0807    0.0014    0.0181    0.0132
       94 C11    *pz        0.2009    0.2324    0.3980    0.5103    0.0336    0.0272    0.3703    0.0104    0.0522    0.0645
       95 C11    *200      -0.0001   -0.0000    0.0000    0.0001    0.0031   -0.0027    0.0000   -0.0030    0.0021   -0.0007
       96 C11    *110       0.0020    0.0014   -0.0012   -0.0022   -0.0040    0.0073   -0.0011    0.0075   -0.0063   -0.0001
       97 C11    *101      -0.0156   -0.0106    0.0088    0.0173   -0.0006    0.0010    0.0083    0.0010   -0.0009   -0.0000
       98 C11    *020       0.0011    0.0009   -0.0002   -0.0015   -0.0026   -0.0010   -0.0016   -0.0003   -0.0050    0.0021
       99 C11    *011      -0.0079   -0.0066    0.0017    0.0111   -0.0003    0.0003    0.0121    0.0006   -0.0008    0.0008
      100 C11    *002      -0.0010   -0.0008    0.0002    0.0014   -0.0013   -0.0022    0.0016   -0.0026   -0.0019   -0.0008
      101 H12    1s        -0.0000    0.0000    0.0000   -0.0000    0.0269   -0.0016    0.0000    0.0007    0.0131    0.0665
      102 H12    *s        -0.0000    0.0000    0.0000    0.0000    0.8197   -0.6705    0.0018   -0.7864    0.9860    0.1750
      103 H13    1s         0.0000    0.0000   -0.0000   -0.0000   -0.0114   -0.0039    0.0000   -0.0043   -0.0325    0.0224
      104 H13    *s        -0.0000    0.0000    0.0000   -0.0000   -0.5218   -0.7486    0.0020   -0.5961   -1.1086   -0.3856
      105 H14    1s        -0.0000    0.0000    0.0000   -0.0000    0.0073   -0.0269    0.0001   -0.0266    0.0070   -0.0146
      106 H14    *s        -0.0000    0.0000    0.0000   -0.0000    0.1993   -0.9434    0.0025   -0.9928   -0.0358    0.5224

          Orbital           31        32        33        34        35        36        37        38    
          Energy            0.3404    0.3515    0.3597    0.4740    0.4934    0.5324    0.5360    0.5970
          Occ. No.          0.0000    0.0000    0.0000    0.0000    0.0000    0.0000    0.0000    0.0000

        1 C1     1s        -0.0222   -0.0653   -0.0201   -0.0315    0.0497   -0.0077   -0.0320   -0.0367
        2 C1     2s         0.0218    0.0576    0.0239   -0.0285    0.0600    0.0523   -0.0001    0.0719
        3 C1     *s         0.4927    1.2814    0.1160    2.0256   -1.7850   -0.8620    1.7817    0.8454
        4 C1     2px       -0.0924   -0.0240   -0.1210    0.0364    0.1239    0.0755    0.0614    0.0828
        5 C1     *px       -0.4115    0.2439   -0.6912    1.6886   -1.5820   -0.0309    1.4035    0.9563
        6 C1     2py        0.1806   -0.0751    0.1313    0.0122    0.0687   -0.1024    0.0709   -0.0210
        7 C1     *py        1.1260   -0.1602    0.8893    0.4014    0.0538   -0.8075    1.3580    1.0388
        8 C1     2pz        0.0242   -0.0098    0.0178    0.0015    0.0086   -0.0138    0.0091   -0.0031
        9 C1     *pz        0.1503   -0.0221    0.1202    0.0463    0.0134   -0.1065    0.1737    0.1334
       10 C1     *200      -0.0026    0.0024   -0.0028    0.0019    0.0004   -0.0245    0.0026   -0.0061
       11 C1     *110       0.0006   -0.0096   -0.0030   -0.0086    0.0154    0.0187   -0.0160   -0.0099
       12 C1     *101       0.0001   -0.0013   -0.0004   -0.0012    0.0021    0.0027   -0.0022   -0.0012
       13 C1     *020       0.0039   -0.0032    0.0015    0.0094   -0.0079    0.0197    0.0054    0.0085
       14 C1     *011       0.0014   -0.0001    0.0007    0.0039   -0.0043    0.0047    0.0023    0.0014
       15 C1     *002      -0.0015   -0.0028   -0.0011   -0.0051    0.0077    0.0017   -0.0030    0.0036
       16 C2     1s         0.0549    0.0549    0.0503    0.0507   -0.0641    0.0568    0.0301    0.0056
       17 C2     2s        -0.0742   -0.0588   -0.0604   -0.0446   -0.0295   -0.0734   -0.0512    0.0496
       18 C2     *s        -0.9783   -1.1691   -0.8529   -1.9280    3.3006   -0.5920   -0.9799   -0.8251
       19 C2     2px       -0.0735    0.0217   -0.0213   -0.0378   -0.0969   -0.1315    0.1233    0.2553
       20 C2     *px        0.2470    0.2018   -0.1725    1.1784    0.4718   -1.8127    2.3710    1.3510
       21 C2     2py       -0.0217   -0.0418   -0.0795    0.1769   -0.1551    0.0887   -0.0081   -0.0443
       22 C2     *py       -0.4022   -0.0865   -0.8538    1.9223   -1.8035    0.3012    0.3022   -0.5492
       23 C2     2pz       -0.0026   -0.0056   -0.0104    0.0235   -0.0201    0.0122   -0.0016   -0.0069
       24 C2     *pz       -0.0541   -0.0122   -0.1121    0.2491   -0.2400    0.0470    0.0305   -0.0778
       25 C2     *200       0.0101   -0.0006    0.0067   -0.0047    0.0226    0.0191    0.0013    0.0078
       26 C2     *110      -0.0127    0.0094   -0.0154   -0.0013    0.0149   -0.0127    0.0067    0.0160
       27 C2     *101      -0.0018    0.0013   -0.0021   -0.0001    0.0017   -0.0019    0.0009    0.0021
       28 C2     *020      -0.0084    0.0009   -0.0036   -0.0023   -0.0034   -0.0108   -0.0048   -0.0122
       29 C2     *011      -0.0021   -0.0002   -0.0009   -0.0009    0.0011   -0.0014   -0.0011   -0.0049
       30 C2     *002      -0.0005    0.0013    0.0002    0.0010   -0.0078   -0.0055   -0.0008    0.0060
       31 H3     1s        -0.0103    0.0176   -0.0079    0.0495   -0.0515   -0.1415    0.0818    0.0341
       32 H3     *s        -1.3073   -0.2435   -1.3169    0.5146   -0.3439    0.5403    0.0643    0.1247
       33 H4     1s         0.0093   -0.0375    0.0015    0.0522   -0.0528    0.1237    0.0573    0.0948
       34 H4     *s         1.0257   -0.9019    0.7940   -0.0901    0.6081   -0.5954    0.8544    0.6327
       35 C5     1s        -0.0354    0.0455   -0.0336   -0.0166    0.0269   -0.1120    0.0181   -0.0335
       36 C5     2s         0.0891   -0.0520    0.0603    0.0641    0.0236    0.0654   -0.0597    0.0243
       37 C5     *s        -0.1309   -0.9479    0.1729   -1.0679   -1.5664    3.6785   -0.3876    1.7064
       38 C5     2px       -0.0759   -0.0438   -0.1006   -0.0010   -0.0036   -0.1161   -0.0171    0.2127
       39 C5     *px       -0.3467   -0.3559   -0.1348   -1.7447    1.8320    0.6655    0.9412    2.4647
       40 C5     2py        0.0210    0.1196    0.0213   -0.0518   -0.1209    0.1869   -0.1142    0.0419
       41 C5     *py       -0.1606    0.3519    0.2282   -1.2275   -1.3597    1.4529   -1.7055    0.8033
       42 C5     2pz        0.0031    0.0160    0.0032   -0.0068   -0.0159    0.0251   -0.0150    0.0047
       43 C5     *pz       -0.0198    0.0479    0.0307   -0.1551   -0.1868    0.1891   -0.2289    0.0962
       44 C5     *200      -0.0119   -0.0057    0.0000   -0.0213   -0.0131   -0.0050   -0.0080    0.0026
       45 C5     *110       0.0073    0.0144    0.0057    0.0083   -0.0021    0.0080   -0.0140   -0.0376
       46 C5     *101       0.0011    0.0020    0.0008    0.0013   -0.0001    0.0011   -0.0018   -0.0050
       47 C5     *020       0.0047    0.0070   -0.0049    0.0095    0.0055    0.0149    0.0061    0.0058
       48 C5     *011       0.0004    0.0017   -0.0021    0.0014    0.0008    0.0040    0.0023    0.0019
       49 C5     *002       0.0033    0.0005    0.0026    0.0042    0.0024   -0.0001   -0.0022   -0.0007
       50 H6     1s        -0.0307    0.0258    0.0025   -0.0085   -0.0455   -0.0485   -0.0311   -0.0657
       51 H6     *s         0.7199    0.6756    1.2055   -1.3018    0.7353   -0.0196    0.0055    0.6577
       52 C7     1s         0.0354   -0.0455   -0.0336    0.0166    0.0269    0.1120    0.0181    0.0335
       53 C7     2s        -0.0891    0.0520    0.0602   -0.0641    0.0236   -0.0654   -0.0597   -0.0243
       54 C7     *s         0.1309    0.9479    0.1728    1.0680   -1.5663   -3.6785   -0.3882   -1.7064
       55 C7     2px       -0.0759   -0.0438    0.1006   -0.0010    0.0036   -0.1161    0.0171    0.2127
       56 C7     *px       -0.3467   -0.3559    0.1348   -1.7446   -1.8322    0.6655   -0.9410    2.4648
       57 C7     2py        0.0210    0.1196   -0.0214   -0.0518    0.1209    0.1869    0.1143    0.0419
       58 C7     *py       -0.1606    0.3519   -0.2283   -1.2275    1.3596    1.4527    1.7058    0.8032
       59 C7     2pz        0.0031    0.0160   -0.0032   -0.0068    0.0159    0.0251    0.0150    0.0047
       60 C7     *pz       -0.0198    0.0479   -0.0307   -0.1550    0.1868    0.1891    0.2289    0.0962
       61 C7     *200       0.0119    0.0057    0.0000    0.0213   -0.0131    0.0050   -0.0080   -0.0026
       62 C7     *110      -0.0073   -0.0144    0.0057   -0.0083   -0.0021   -0.0080   -0.0140    0.0376
       63 C7     *101      -0.0011   -0.0020    0.0008   -0.0013   -0.0001   -0.0011   -0.0018    0.0050
       64 C7     *020      -0.0047   -0.0070   -0.0049   -0.0095    0.0055   -0.0149    0.0061   -0.0058
       65 C7     *011      -0.0004   -0.0017   -0.0021   -0.0014    0.0008   -0.0040    0.0023   -0.0019
       66 C7     *002      -0.0033   -0.0005    0.0026   -0.0042    0.0024    0.0001   -0.0022    0.0007
       67 H8     1s         0.0057    0.0584   -0.0413    0.0376    0.0441    0.0173    0.0066    0.0268
       68 H8     *s        -0.2434    1.0197   -0.0513   -0.9354   -0.7691    0.2532   -1.4318    0.3311
       69 C9     1s        -0.0549   -0.0549    0.0503   -0.0507   -0.0641   -0.0568    0.0301   -0.0056
       70 C9     2s         0.0742    0.0587   -0.0604    0.0446   -0.0295    0.0734   -0.0512   -0.0496
       71 C9     *s         0.9784    1.1690   -0.8530    1.9279    3.3007    0.5922   -0.9799    0.8252
       72 C9     2px       -0.0735    0.0217    0.0213   -0.0378    0.0969   -0.1314   -0.1233    0.2553
       73 C9     *px        0.2470    0.2018    0.1725    1.1784   -0.4718   -1.8125   -2.3712    1.3512
       74 C9     2py       -0.0217   -0.0418    0.0795    0.1769    0.1551    0.0887    0.0081   -0.0443
       75 C9     *py       -0.4022   -0.0864    0.8538    1.9223    1.8036    0.3013   -0.3023   -0.5491
       76 C9     2pz       -0.0026   -0.0056    0.0104    0.0235    0.0201    0.0122    0.0016   -0.0069
       77 C9     *pz       -0.0541   -0.0122    0.1120    0.2489    0.2399    0.0470   -0.0304   -0.0779
       78 C9     *200      -0.0101    0.0006    0.0067    0.0047    0.0226   -0.0191    0.0013   -0.0078
       79 C9     *110       0.0127   -0.0094   -0.0154    0.0013    0.0149    0.0127    0.0067   -0.0160
       80 C9     *101       0.0018   -0.0013   -0.0021    0.0001    0.0017    0.0019    0.0009   -0.0021
       81 C9     *020       0.0084   -0.0009   -0.0036    0.0023   -0.0034    0.0108   -0.0048    0.0122
       82 C9     *011       0.0021    0.0002   -0.0009    0.0009    0.0011    0.0014   -0.0011    0.0049
       83 C9     *002       0.0005   -0.0013    0.0002   -0.0010   -0.0078    0.0055   -0.0008   -0.0060
       84 H10    1s        -0.0057   -0.0584   -0.0413   -0.0376    0.0441   -0.0173    0.0066   -0.0268
       85 H10    *s         0.2434   -1.0196   -0.0512    0.9353   -0.7691   -0.2530   -1.4318   -0.3310
       86 C11    1s         0.0222    0.0653   -0.0201    0.0315    0.0497    0.0077   -0.0320    0.0367
       87 C11    2s        -0.0218   -0.0576    0.0239    0.0285    0.0600   -0.0522   -0.0001   -0.0719
       88 C11    *s        -0.4927   -1.2813    0.1162   -2.0255   -1.7851    0.8618    1.7819   -0.8455
       89 C11    2px       -0.0924   -0.0240    0.1210    0.0364   -0.1239    0.0755   -0.0614    0.0828
       90 C11    *px       -0.4115    0.2440    0.6911    1.6885    1.5821   -0.0308   -1.4036    0.9564
       91 C11    2py        0.1806   -0.0751   -0.1313    0.0122   -0.0687   -0.1024   -0.0709   -0.0210
       92 C11    *py        1.1260   -0.1603   -0.8892    0.4014   -0.0538   -0.8074   -1.3581    1.0389
       93 C11    2pz        0.0242   -0.0098   -0.0178    0.0015   -0.0086   -0.0138   -0.0091   -0.0031
       94 C11    *pz        0.1502   -0.0221   -0.1201    0.0462   -0.0135   -0.1064   -0.1736    0.1333
       95 C11    *200       0.0026   -0.0024   -0.0028   -0.0019    0.0004    0.0245    0.0026    0.0061
       96 C11    *110      -0.0006    0.0096   -0.0030    0.0086    0.0154   -0.0187   -0.0160    0.0099
       97 C11    *101      -0.0001    0.0013   -0.0004    0.0012    0.0021   -0.0027   -0.0022    0.0012
       98 C11    *020      -0.0039    0.0032    0.0015   -0.0094   -0.0079   -0.0197    0.0054   -0.0085
       99 C11    *011      -0.0014    0.0001    0.0007   -0.0039   -0.0043   -0.0047    0.0023   -0.0014
      100 C11    *002       0.0015    0.0028   -0.0011    0.0051    0.0077   -0.0017   -0.0030   -0.0036
      101 H12    1s         0.0307   -0.0258    0.0025    0.0085   -0.0455    0.0485   -0.0311    0.0657
      102 H12    *s        -0.7200   -0.6754    1.2056    1.3018    0.7354    0.0196    0.0054   -0.6577
[...]
       69 C9     1s         0.0000   -0.0000    0.0000    0.0000    0.0304   -0.0310    0.0262    0.0000    0.0304    0.0207
       70 C9     2s        -0.0000    0.0000    0.0000   -0.0000   -0.0263    0.0245   -0.0077   -0.0000   -0.0439   -0.0280
       71 C9     *s        -0.0000   -0.0000   -0.0000   -0.0001   -0.5147    0.7705   -0.8444   -0.0002   -0.3234   -0.2252
       72 C9     2px        0.0011    0.0006   -0.0006   -0.0012   -0.0081   -0.0296    0.0015   -0.0008   -0.0480    0.0584
       73 C9     *px        0.0008    0.0006   -0.0010   -0.0023   -0.0521   -0.1661    0.2852   -0.0024   -0.3093    0.4509
       74 C9     2py       -0.0355   -0.0213    0.0199    0.0378    0.1293   -0.0864    0.1190    0.0254    0.1269    0.0088
       75 C9     *py       -0.0270   -0.0193    0.0332    0.0758    0.3303   -0.3116    0.4411    0.0816    0.5634   -0.2992
       76 C9     2pz        0.2685    0.1615   -0.1510   -0.2865    0.0171   -0.0114    0.0157   -0.1926    0.0170    0.0009
       77 C9     *pz        0.2047    0.1460   -0.2516   -0.5744    0.0438   -0.0407    0.0571   -0.6180    0.0757   -0.0413
       78 C9     *200       0.0000    0.0001    0.0001    0.0000   -0.0055    0.0023   -0.0027   -0.0000    0.0001   -0.0084
       79 C9     *110      -0.0016   -0.0031   -0.0034   -0.0009    0.0011    0.0012    0.0032    0.0010    0.0124   -0.0090
       80 C9     *101       0.0121    0.0235    0.0254    0.0071    0.0002    0.0001    0.0005   -0.0067    0.0016   -0.0011
       81 C9     *020      -0.0013   -0.0006    0.0001   -0.0014    0.0061   -0.0032    0.0023   -0.0024    0.0027    0.0093
       82 C9     *011       0.0095    0.0043   -0.0008    0.0102    0.0009   -0.0006    0.0001    0.0175    0.0004    0.0026
       83 C9     *002       0.0012    0.0005   -0.0002    0.0013    0.0026   -0.0009    0.0019    0.0024    0.0012   -0.0003
       84 H10    1s         0.0000   -0.0000    0.0000   -0.0000   -0.0273    0.0101   -0.0396   -0.0000   -0.0029   -0.0066
       85 H10    *s         0.0000    0.0000    0.0000    0.0000   -1.0099   -0.3970    0.6794    0.0003    0.2486   -1.4214
       86 C11    1s         0.0000    0.0000    0.0000   -0.0000   -0.0118   -0.0666    0.0602    0.0000   -0.0594    0.0216
       87 C11    2s        -0.0000   -0.0000   -0.0000   -0.0000    0.0092    0.0715   -0.0567   -0.0000    0.0689   -0.0332
       88 C11    *s         0.0000    0.0000   -0.0000    0.0000    0.2437    1.1811   -1.1911   -0.0002    0.9670   -0.3827
       89 C11    2px        0.0010    0.0010    0.0009    0.0008   -0.0236    0.1156   -0.1279    0.0003   -0.0116   -0.0381
       90 C11    *px        0.0008    0.0009    0.0016    0.0020   -0.0549    0.5134   -0.4630    0.0014    0.0497   -0.2304
       91 C11    2py       -0.0326   -0.0323   -0.0315   -0.0282    0.0987    0.0319   -0.0072   -0.0105    0.1398    0.1122
       92 C11    *py       -0.0262   -0.0303   -0.0525   -0.0682    0.2774    0.1967   -0.0712   -0.0508    0.4105    0.5616
       93 C11    2pz        0.2477    0.2453    0.2390    0.2138    0.0131    0.0038   -0.0004    0.0796    0.0185    0.0149
       94 C11    *pz        0.1989    0.2301    0.3981    0.5172    0.0368    0.0241   -0.0076    0.3856    0.0538    0.0750
       95 C11    *200      -0.0001   -0.0000    0.0000    0.0001    0.0035   -0.0028    0.0034    0.0000    0.0024   -0.0001
       96 C11    *110       0.0021    0.0014   -0.0012   -0.0024   -0.0043    0.0076   -0.0083   -0.0012   -0.0070    0.0005
       97 C11    *101      -0.0158   -0.0108    0.0089    0.0182   -0.0006    0.0010   -0.0011    0.0096   -0.0010    0.0001
       98 C11    *020       0.0010    0.0009   -0.0002   -0.0015   -0.0029   -0.0006   -0.0005   -0.0017   -0.0052    0.0018
       99 C11    *011      -0.0076   -0.0063    0.0017    0.0109   -0.0004    0.0005   -0.0009    0.0124   -0.0008    0.0007
      100 C11    *002      -0.0010   -0.0008    0.0002    0.0014   -0.0014   -0.0024    0.0028    0.0016   -0.0022   -0.0007
      101 H12    1s         0.0000    0.0000    0.0000    0.0000    0.0264   -0.0022   -0.0032    0.0000    0.0145    0.0608
      102 H12    *s         0.0000    0.0000    0.0000    0.0001    0.8318   -0.6719    0.7994    0.0002    0.9284    0.1407
      103 H13    1s         0.0000    0.0000   -0.0000   -0.0000   -0.0113    0.0025   -0.0041   -0.0000   -0.0314    0.0231
      104 H13    *s         0.0000    0.0000   -0.0000   -0.0001   -0.5493   -0.7476    0.5574    0.0001   -1.1648   -0.4273
      105 H14    1s        -0.0000   -0.0000    0.0000    0.0000    0.0092   -0.0253    0.0266    0.0000    0.0107   -0.0149
      106 H14    *s        -0.0000   -0.0000    0.0000    0.0001    0.2199   -0.9895    1.0248    0.0003   -0.0886    0.6980

          Orbital           31        32        33        34        35        36        37    
          Energy            0.3416    0.3502    0.3651    0.4810    0.4980    0.5324    0.5423
          Occ. No.          0.0000    0.0000    0.0000    0.0000    0.0000    0.0000    0.0000

        1 C1     1s        -0.0220   -0.0649   -0.0167   -0.0328    0.0499   -0.0034    0.0313
        2 C1     2s         0.0224    0.0541    0.0216   -0.0264    0.0687    0.0778   -0.0026
        3 C1     *s         0.4818    1.3244    0.0218    2.0610   -1.7578   -1.2744   -1.9217
        4 C1     2px       -0.0825   -0.0266   -0.1058    0.0503    0.1285    0.1125   -0.0708
        5 C1     *px       -0.3681    0.2515   -0.6656    1.8430   -1.6515   -0.3893   -1.5129
        6 C1     2py        0.1794   -0.0755    0.1226   -0.0022    0.0677   -0.0963   -0.0645
        7 C1     *py        1.1231   -0.1801    0.8736    0.3027    0.0621   -0.8309   -1.3722
        8 C1     2pz        0.0240   -0.0099    0.0166   -0.0005    0.0084   -0.0132   -0.0083
        9 C1     *pz        0.1498   -0.0248    0.1180    0.0326    0.0148   -0.1082   -0.1752
       10 C1     *200      -0.0028    0.0024   -0.0030   -0.0010    0.0021   -0.0240   -0.0024
       11 C1     *110       0.0007   -0.0100   -0.0036   -0.0046    0.0143    0.0226    0.0144
       12 C1     *101       0.0001   -0.0014   -0.0005   -0.0006    0.0019    0.0032    0.0019
       13 C1     *020       0.0040   -0.0030    0.0018    0.0120   -0.0086    0.0174   -0.0054
       14 C1     *011       0.0015    0.0001    0.0008    0.0046   -0.0045    0.0036   -0.0022
       15 C1     *002      -0.0015   -0.0031   -0.0009   -0.0052    0.0081    0.0038    0.0027
       16 C2     1s         0.0570    0.0548    0.0529    0.0575   -0.0654    0.0489   -0.0281
       17 C2     2s        -0.0754   -0.0619   -0.0625   -0.0509   -0.0234   -0.0643    0.0561
       18 C2     *s        -1.0568   -1.1808   -0.9021   -2.2059    3.4782   -0.1505    0.8812
       19 C2     2px       -0.0733    0.0153   -0.0203   -0.0520   -0.1086   -0.1351   -0.1081
       20 C2     *px        0.2210    0.2071   -0.2419    1.1068    0.5177   -1.8997   -2.6252
       21 C2     2py       -0.0257   -0.0369   -0.0921    0.1829   -0.1525    0.0502    0.0118
       22 C2     *py       -0.4393   -0.0628   -0.9068    2.0275   -1.7427   -0.1226   -0.3226
       23 C2     2pz       -0.0031   -0.0049   -0.0121    0.0244   -0.0197    0.0072    0.0020
       24 C2     *pz       -0.0589   -0.0091   -0.1188    0.2632   -0.2321   -0.0086   -0.0321
       25 C2     *200       0.0102   -0.0010    0.0066   -0.0029    0.0240    0.0230   -0.0030
       26 C2     *110      -0.0131    0.0100   -0.0161   -0.0028    0.0148   -0.0056   -0.0062
       27 C2     *101      -0.0018    0.0013   -0.0022   -0.0003    0.0017   -0.0010   -0.0008
       28 C2     *020      -0.0088    0.0010   -0.0034   -0.0039   -0.0031   -0.0124    0.0049
       29 C2     *011      -0.0022   -0.0001   -0.0009   -0.0012    0.0012   -0.0018    0.0009
       30 C2     *002      -0.0002    0.0012    0.0004    0.0005   -0.0079   -0.0057    0.0017
       31 H3     1s        -0.0111    0.0214   -0.0084    0.0276   -0.0454   -0.1555   -0.0746
       32 H3     *s        -1.2788   -0.2380   -1.2460    0.6669   -0.3994    0.4770   -0.1228
       33 H4     1s         0.0113   -0.0364    0.0068    0.0688   -0.0572    0.1132   -0.0544
       34 H4     *s         1.0321   -0.9247    0.7960   -0.1267    0.5622   -0.5512   -0.8753
       35 C5     1s        -0.0368    0.0432   -0.0368   -0.0344    0.0281   -0.1099   -0.0188
       36 C5     2s         0.0888   -0.0477    0.0619    0.0843    0.0215    0.0654    0.0620
       37 C5     *s        -0.0758   -0.9687    0.2924   -0.7688   -1.7133    3.9064    0.5915
       38 C5     2px       -0.0734   -0.0360   -0.1008    0.0013   -0.0075   -0.0925    0.0332
       39 C5     *px       -0.3361   -0.3801   -0.1390   -1.7769    1.8863    1.1196   -1.1118
       40 C5     2py        0.0187    0.1208    0.0039   -0.0263   -0.1150    0.1886    0.1105
       41 C5     *py       -0.1264    0.3409    0.1765   -1.1335   -1.2926    1.5935    1.8540
       42 C5     2pz        0.0028    0.0161    0.0009   -0.0035   -0.0151    0.0253    0.0145
       43 C5     *pz       -0.0153    0.0465    0.0239   -0.1425   -0.1782    0.2059    0.2492
       44 C5     *200      -0.0120   -0.0068    0.0002   -0.0240   -0.0144   -0.0046    0.0101
       45 C5     *110       0.0078    0.0149    0.0059    0.0056   -0.0004    0.0074    0.0141
       46 C5     *101       0.0011    0.0020    0.0008    0.0010    0.0001    0.0010    0.0018
       47 C5     *020       0.0053    0.0075   -0.0048    0.0120    0.0053    0.0162   -0.0067
       48 C5     *011       0.0006    0.0017   -0.0020    0.0020    0.0007    0.0044   -0.0024
       49 C5     *002       0.0031    0.0008    0.0026    0.0046    0.0025   -0.0003    0.0021
       50 H6     1s        -0.0360    0.0255   -0.0004   -0.0169   -0.0391   -0.0647    0.0297
       51 H6     *s         0.7802    0.6409    1.3092   -1.3267    0.6609    0.2804    0.0665
       52 C7     1s         0.0368   -0.0432   -0.0368    0.0344    0.0281    0.1099   -0.0188
       53 C7     2s        -0.0888    0.0477    0.0619   -0.0843    0.0215   -0.0654    0.0620
       54 C7     *s         0.0758    0.9687    0.2924    0.7688   -1.7133   -3.9064    0.5915
       55 C7     2px       -0.0734   -0.0360    0.1008    0.0013    0.0075   -0.0925   -0.0332
       56 C7     *px       -0.3361   -0.3801    0.1390   -1.7769   -1.8863    1.1196    1.1118
       57 C7     2py        0.0187    0.1208   -0.0039   -0.0263    0.1150    0.1886   -0.1105
       58 C7     *py       -0.1264    0.3409   -0.1765   -1.1335    1.2926    1.5935   -1.8540
       59 C7     2pz        0.0028    0.0161   -0.0009   -0.0035    0.0152    0.0253   -0.0145
       60 C7     *pz       -0.0154    0.0466   -0.0238   -0.1425    0.1782    0.2059   -0.2492
       61 C7     *200       0.0120    0.0068    0.0002    0.0240   -0.0144    0.0046    0.0101
       62 C7     *110      -0.0078   -0.0149    0.0059   -0.0056   -0.0004   -0.0074    0.0141
       63 C7     *101      -0.0011   -0.0020    0.0008   -0.0010    0.0001   -0.0010    0.0018
       64 C7     *020      -0.0053   -0.0075   -0.0048   -0.0120    0.0053   -0.0162   -0.0067
       65 C7     *011      -0.0006   -0.0017   -0.0020   -0.0020    0.0007   -0.0044   -0.0024
       66 C7     *002      -0.0031   -0.0008    0.0026   -0.0046    0.0025    0.0003    0.0021
       67 H8     1s         0.0118    0.0592   -0.0404    0.0458    0.0424    0.0367   -0.0096
       68 H8     *s        -0.2407    1.0114   -0.1893   -0.9722   -0.6807    0.3858    1.4626
       69 C9     1s        -0.0570   -0.0548    0.0529   -0.0575   -0.0654   -0.0489   -0.0281
       70 C9     2s         0.0754    0.0619   -0.0625    0.0509   -0.0234    0.0643    0.0561
       71 C9     *s         1.0568    1.1808   -0.9021    2.2059    3.4782    0.1505    0.8812
       72 C9     2px       -0.0733    0.0153    0.0203   -0.0520    0.1086   -0.1351    0.1081
       73 C9     *px        0.2210    0.2071    0.2419    1.1068   -0.5177   -1.8997    2.6252
       74 C9     2py       -0.0257   -0.0369    0.0922    0.1829    0.1525    0.0502   -0.0118
       75 C9     *py       -0.4393   -0.0628    0.9068    2.0275    1.7427   -0.1226    0.3226
       76 C9     2pz       -0.0031   -0.0050    0.0121    0.0244    0.0197    0.0072   -0.0020
       77 C9     *pz       -0.0588   -0.0092    0.1187    0.2632    0.2321   -0.0086    0.0321
       78 C9     *200      -0.0102    0.0010    0.0066    0.0029    0.0240   -0.0230   -0.0030
       79 C9     *110       0.0131   -0.0100   -0.0161    0.0028    0.0148    0.0056   -0.0062
       80 C9     *101       0.0018   -0.0013   -0.0022    0.0003    0.0017    0.0010   -0.0008
       81 C9     *020       0.0088   -0.0010   -0.0034    0.0039   -0.0031    0.0124    0.0049
       82 C9     *011       0.0022    0.0001   -0.0009    0.0012    0.0012    0.0018    0.0009
       83 C9     *002       0.0002   -0.0012    0.0004   -0.0005   -0.0079    0.0057    0.0017
       84 H10    1s        -0.0118   -0.0592   -0.0404   -0.0458    0.0424   -0.0367   -0.0096
       85 H10    *s         0.2407   -1.0114   -0.1893    0.9722   -0.6807   -0.3858    1.4626
       86 C11    1s         0.0220    0.0649   -0.0167    0.0328    0.0499    0.0034    0.0313
       87 C11    2s        -0.0224   -0.0541    0.0216    0.0264    0.0687   -0.0778   -0.0026
       88 C11    *s        -0.4818   -1.3244    0.0218   -2.0610   -1.7578    1.2744   -1.9217
       89 C11    2px       -0.0825   -0.0266    0.1058    0.0503   -0.1285    0.1125    0.0708
       90 C11    *px       -0.3681    0.2515    0.6656    1.8430    1.6515   -0.3893    1.5129
       91 C11    2py        0.1794   -0.0755   -0.1226   -0.0022   -0.0677   -0.0963    0.0645
       92 C11    *py        1.1232   -0.1801   -0.8736    0.3027   -0.0621   -0.8309    1.3722
       93 C11    2pz        0.0240   -0.0098   -0.0166   -0.0005   -0.0084   -0.0131    0.0082
       94 C11    *pz        0.1495   -0.0247   -0.1178    0.0326   -0.0148   -0.1081    0.1750
       95 C11    *200       0.0028   -0.0024   -0.0030    0.0010    0.0021    0.0240   -0.0024
       96 C11    *110      -0.0007    0.0100   -0.0036    0.0046    0.0143   -0.0226    0.0144
       97 C11    *101      -0.0001    0.0014   -0.0005    0.0006    0.0019   -0.0032    0.0019
       98 C11    *020      -0.0040    0.0030    0.0018   -0.0120   -0.0086   -0.0174   -0.0054
       99 C11    *011      -0.0015   -0.0001    0.0008   -0.0046   -0.0045   -0.0036   -0.0022
      100 C11    *002       0.0015    0.0031   -0.0009    0.0052    0.0081   -0.0038    0.0027
      101 H12    1s         0.0360   -0.0255   -0.0004    0.0169   -0.0391    0.0647    0.0297
      102 H12    *s        -0.7802   -0.6409    1.3092    1.3267    0.6609   -0.2804    0.0665
      103 H13    1s        -0.0113    0.0364    0.0068   -0.0688   -0.0572   -0.1132   -0.0544
      104 H13    *s        -1.0321    0.9247    0.7960    0.1267    0.5622    0.5512   -0.8753
      105 H14    1s         0.0111   -0.0214   -0.0084   -0.0276   -0.0454    0.1555   -0.0746
      106 H14    *s         1.2788    0.2380   -1.2460   -0.6669   -0.3994   -0.4770   -0.1228
--


++    Molecular charges:
      ------------------

      Mulliken charges per centre and basis function type
      ---------------------------------------------------

                C1      C2      H3      H4      C5      H6      C7      H8      C9      H10     C11     H12   
      1s       1.9965  1.9966  0.5274  0.5275  1.9966  0.5304  1.9966  0.5295  1.9966  0.5295  1.9965  0.5304
      2s       0.6604  0.6714  0.0000  0.0000  0.6704  0.0000  0.6704  0.0000  0.6714  0.0000  0.6604  0.0000
      2px      0.7524  0.7521  0.0000  0.0000  0.7524  0.0000  0.7524  0.0000  0.7521  0.0000  0.7524  0.0000
      2pz      0.5203  0.5164  0.0000  0.0000  0.5232  0.0000  0.5232  0.0000  0.5164  0.0000  0.5203  0.0000
      2py      0.7180  0.7204  0.0000  0.0000  0.7172  0.0000  0.7172  0.0000  0.7204  0.0000  0.7180  0.0000
      *s       0.5869  0.4838  0.2902  0.2955  0.4911  0.2821  0.4911  0.2836  0.4838  0.2836  0.5869  0.2821
      *px      0.2719  0.1760  0.0000  0.0000  0.1965  0.0000  0.1965  0.0000  0.1760  0.0000  0.2719  0.0000
      *pz      0.4994  0.4491  0.0000  0.0000  0.4629  0.0000  0.4629  0.0000  0.4491  0.0000  0.4994  0.0000
      *py      0.3453  0.3061  0.0000  0.0000  0.3170  0.0000  0.3170  0.0000  0.3061  0.0000  0.3453  0.0000
      *200     0.0294  0.0236  0.0000  0.0000  0.0239  0.0000  0.0239  0.0000  0.0236  0.0000  0.0294  0.0000
      *110     0.0130  0.0131  0.0000  0.0000  0.0128  0.0000  0.0128  0.0000  0.0131  0.0000  0.0130  0.0000
      *101     0.0062  0.0099  0.0000  0.0000  0.0094  0.0000  0.0094  0.0000  0.0099  0.0000  0.0062  0.0000
      *020     0.0305  0.0303  0.0000  0.0000  0.0301  0.0000  0.0301  0.0000  0.0303  0.0000  0.0305  0.0000
      *011     0.0020  0.0028  0.0000  0.0000  0.0027  0.0000  0.0027  0.0000  0.0028  0.0000  0.0020  0.0000
      *002    -0.0197 -0.0183  0.0000  0.0000 -0.0182  0.0000 -0.0182  0.0000 -0.0183  0.0000 -0.0197  0.0000
      Total    6.4126  6.1331  0.8177  0.8230  6.1880  0.8125  6.1880  0.8131  6.1331  0.8131  6.4126  0.8125

      N-E     -0.4126 -0.1331  0.1823  0.1770 -0.1880  0.1875 -0.1880  0.1869 -0.1331  0.1869 -0.4126  0.1875

                H13     H14   
      1s       0.5275  0.5274
      2s       0.0000  0.0000
      2px      0.0000  0.0000
      2pz      0.0000  0.0000
      2py      0.0000  0.0000
      *s       0.2955  0.2902
      *px      0.0000  0.0000
      *pz      0.0000  0.0000
      *py      0.0000  0.0000
      *200     0.0000  0.0000
      *110     0.0000  0.0000
      *101     0.0000  0.0000
      *020     0.0000  0.0000
      *011     0.0000  0.0000
      *002     0.0000  0.0000
      Total    0.8230  0.8177

      N-E      0.1770  0.1823

      Total electronic charge=   44.000000

      Total            charge=   -0.000000
--


++    Molecular properties:
      ---------------------

      Charge (e):
                      =   -0.0000
      Dipole Moment (Debye):
      Origin of the operator (Ang)=    0.0000    0.0000    0.0000
                   X=  2.6599E-07               Y=  1.4596E-05               Z= -1.1092E-04           Total=  1.1187E-04
      Quadrupole Moment (Debye*Ang):
      Origin of the operator (Ang)=   -3.9709    2.5515    0.0000
                  XX= -3.3931E+01              XY=  1.9855E-01              XZ= -5.2028E-03              YY= -3.3278E+01
                  YZ=  1.1364E+00              ZZ= -4.1742E+01
      In traceless form (Debye*Ang)
                  XX=  3.5787E+00              XY=  2.9783E-01              XZ= -7.8042E-03              YY=  4.5591E+00
                  YZ=  1.7045E+00              ZZ= -8.1378E+00
--


      Input file to MOLDEN was generated!

 ###############################################################################
 ###############################################################################
 ###                                                                         ###
 ###                                                                         ###
 ###    WARNING: RunFile label nBas                                          ###
 ###    was used       63 times                                              ###
 ###                                                                         ###
 ###                                                                         ###
 ###############################################################################
 ###############################################################################
--- Stop Module: last_energy at Tue May 28 14:04:43 2024 /rc=_RC_ALL_IS_WELL_ ---
*** files: c6h8.scf.molden c6h8.ScfOrb xmldump
    saved to directory /home/kenya/molcas_test/0528
--- Module last_energy spent 18 seconds ---

>>> END DO

.##################.
.# Happy landing! #.
.##################.

    Timing: Wall=141.00 User=125.12 System=15.38
