[Molden Format]
[N_Atoms]
                   10
[Atoms] (AU)
C1          1      6          -2.01348429      2.12110419      0.00000000
H2          2      1           0.08297787      2.12110419      0.00000000
H3          3      1          -2.71228611      3.65250045     -1.24965699
H4          4      1          -2.71230501      2.43763332      1.95104774
H5          5      1          -2.71230501      0.27317881     -0.70139075
C6          6      6          -2.01348429    191.09371665      0.00000000
H7          7      1           0.08297787    191.09371665      0.00000000
H8          8      1          -2.71228611    192.62511291     -1.24965699
H9          9      1          -2.71230501    191.41024578      1.95104774
H10        10      1          -2.71230501    189.24579127     -0.70139075
[5D]
[Charge] (Mulliken)
 -0.16650490617669433     
   4.1625965068494142E-002
   4.1626446253335891E-002
   4.1626253222429188E-002
   4.1626241632432337E-002
 -0.16650490617703539     
   4.1625965064637338E-002
   4.1626446267834960E-002
   4.1626253218305709E-002
   4.1626241626257721E-002
[GTO] (AU)
   1
   s   9
  6.665000000E+03  6.920001793E-04
  1.000000000E+03  5.329001381E-03
  2.280000000E+02  2.707700701E-02
  6.471000000E+01  1.017180264E-01
  2.106000000E+01  2.747400712E-01
  7.495000000E+00  4.485641162E-01
  2.797000000E+00  2.850740738E-01
  5.215000000E-01  1.520400394E-02
  1.596000000E-01 -3.191000827E-03
   s   9
  6.665000000E+03 -1.460000642E-04
  1.000000000E+03 -1.154000508E-03
  2.280000000E+02 -5.725002519E-03
  6.471000000E+01 -2.331201026E-02
  2.106000000E+01 -6.395502813E-02
  7.495000000E+00 -1.499810660E-01
  2.797000000E+00 -1.272620560E-01
  5.215000000E-01  5.445292395E-01
  1.596000000E-01  5.804962554E-01
   s   1
  1.596000000E-01  1.000000000E+00
   p   4
  9.439000000E+00  3.810902127E-02
  2.002000000E+00  2.094801169E-01
  5.456000000E-01  5.085572839E-01
  1.517000000E-01  4.688422617E-01
   p   1
  1.517000000E-01  1.000000000E+00
   d   1
  5.500000000E-01  1.000000000E+00
 
   2
   s   4
  1.301000000E+01  1.968498999E-02
  1.962000000E+00  1.379769298E-01
  4.446000000E-01  4.781477569E-01
  1.220000000E-01  5.012397451E-01
   s   1
  1.220000000E-01  1.000000000E+00
   p   1
  7.270000000E-01  1.000000000E+00
 
   3
   s   4
  1.301000000E+01  1.968498999E-02
  1.962000000E+00  1.379769298E-01
  4.446000000E-01  4.781477569E-01
  1.220000000E-01  5.012397451E-01
   s   1
  1.220000000E-01  1.000000000E+00
   p   1
  7.270000000E-01  1.000000000E+00
 
   4
   s   4
  1.301000000E+01  1.968498999E-02
  1.962000000E+00  1.379769298E-01
  4.446000000E-01  4.781477569E-01
  1.220000000E-01  5.012397451E-01
   s   1
  1.220000000E-01  1.000000000E+00
   p   1
  7.270000000E-01  1.000000000E+00
 
   5
   s   4
  1.301000000E+01  1.968498999E-02
  1.962000000E+00  1.379769298E-01
  4.446000000E-01  4.781477569E-01
  1.220000000E-01  5.012397451E-01
   s   1
  1.220000000E-01  1.000000000E+00
   p   1
  7.270000000E-01  1.000000000E+00
 
   6
   s   9
  6.665000000E+03  6.920001793E-04
  1.000000000E+03  5.329001381E-03
  2.280000000E+02  2.707700701E-02
  6.471000000E+01  1.017180264E-01
  2.106000000E+01  2.747400712E-01
  7.495000000E+00  4.485641162E-01
  2.797000000E+00  2.850740738E-01
  5.215000000E-01  1.520400394E-02
  1.596000000E-01 -3.191000827E-03
   s   9
  6.665000000E+03 -1.460000642E-04
  1.000000000E+03 -1.154000508E-03
  2.280000000E+02 -5.725002519E-03
  6.471000000E+01 -2.331201026E-02
  2.106000000E+01 -6.395502813E-02
  7.495000000E+00 -1.499810660E-01
  2.797000000E+00 -1.272620560E-01
  5.215000000E-01  5.445292395E-01
  1.596000000E-01  5.804962554E-01
   s   1
  1.596000000E-01  1.000000000E+00
   p   4
  9.439000000E+00  3.810902127E-02
  2.002000000E+00  2.094801169E-01
  5.456000000E-01  5.085572839E-01
  1.517000000E-01  4.688422617E-01
   p   1
  1.517000000E-01  1.000000000E+00
   d   1
  5.500000000E-01  1.000000000E+00
 
   7
   s   4
  1.301000000E+01  1.968498999E-02
  1.962000000E+00  1.379769298E-01
  4.446000000E-01  4.781477569E-01
  1.220000000E-01  5.012397451E-01
   s   1
  1.220000000E-01  1.000000000E+00
   p   1
  7.270000000E-01  1.000000000E+00
 
   8
   s   4
  1.301000000E+01  1.968498999E-02
  1.962000000E+00  1.379769298E-01
  4.446000000E-01  4.781477569E-01
  1.220000000E-01  5.012397451E-01
   s   1
  1.220000000E-01  1.000000000E+00
   p   1
  7.270000000E-01  1.000000000E+00
 
   9
   s   4
  1.301000000E+01  1.968498999E-02
  1.962000000E+00  1.379769298E-01
  4.446000000E-01  4.781477569E-01
  1.220000000E-01  5.012397451E-01
   s   1
  1.220000000E-01  1.000000000E+00
   p   1
  7.270000000E-01  1.000000000E+00
 
  10
   s   4
  1.301000000E+01  1.968498999E-02
  1.962000000E+00  1.379769298E-01
  4.446000000E-01  4.781477569E-01
  1.220000000E-01  5.012397451E-01
   s   1
  1.220000000E-01  1.000000000E+00
   p   1
  7.270000000E-01  1.000000000E+00
 
[MO]
Sym=     1a  
Ene=   -11.2250
Spin= Alpha
Occup=    2.00000
   1         1.00156937
   2         0.00886586
   3        -0.00987155
   4         0.00000000
   5        -0.00000000
   6         0.00000000
   7        -0.00000001
   8         0.00000000
   9        -0.00000000
  10         0.00000000
  11        -0.00000001
  12        -0.00000001
  13        -0.00000001
  14         0.00000001
  15         0.00003063
  16         0.00116324
  17         0.00042517
  18        -0.00000000
  19         0.00000000
  20         0.00003062
  21         0.00116325
  22        -0.00014172
  23         0.00031057
  24        -0.00025343
  25         0.00003062
  26         0.00116325
  27        -0.00014172
  28         0.00006420
  29         0.00039568
  30         0.00003062
  31         0.00116325
  32        -0.00014172
  33        -0.00037476
  34        -0.00014225
  35         0.00000000
  36         0.00000000
  37         0.00000000
  38         0.00000000
  39         0.00000000
  40         0.00000000
  41         0.00000000
  42         0.00000000
  43         0.00000000
  44         0.00000000
  45         0.00000000
  46         0.00000000
  47         0.00000000
  48         0.00000000
  49         0.00000000
  50         0.00000000
  51         0.00000000
  52         0.00000000
  53         0.00000000
  54         0.00000000
  55         0.00000000
  56         0.00000000
  57         0.00000000
  58         0.00000000
  59         0.00000000
  60         0.00000000
  61         0.00000000
  62         0.00000000
  63         0.00000000
  64         0.00000000
  65         0.00000000
  66         0.00000000
  67         0.00000000
  68         0.00000000
Sym=     2a  
Ene=   -11.2250
Spin= Alpha
Occup=    2.00000
   1         0.00000000
   2         0.00000000
   3         0.00000000
   4         0.00000000
   5         0.00000000
   6         0.00000000
   7         0.00000000
   8         0.00000000
   9         0.00000000
  10         0.00000000
  11         0.00000000
  12         0.00000000
  13         0.00000000
  14         0.00000000
  15         0.00000000
  16         0.00000000
  17         0.00000000
  18         0.00000000
  19         0.00000000
  20         0.00000000
  21         0.00000000
  22         0.00000000
  23         0.00000000
  24         0.00000000
  25         0.00000000
  26         0.00000000
  27         0.00000000
  28         0.00000000
  29         0.00000000
  30         0.00000000
  31         0.00000000
  32         0.00000000
  33         0.00000000
  34         0.00000000
  35         1.00156937
  36         0.00886586
  37        -0.00987155
  38         0.00000000
  39        -0.00000000
  40         0.00000000
  41        -0.00000001
  42         0.00000000
  43        -0.00000000
  44         0.00000000
  45        -0.00000001
  46        -0.00000001
  47        -0.00000001
  48         0.00000001
  49         0.00003063
  50         0.00116324
  51         0.00042517
  52        -0.00000000
  53         0.00000000
  54         0.00003062
  55         0.00116325
  56        -0.00014172
  57         0.00031057
  58        -0.00025343
  59         0.00003062
  60         0.00116325
  61        -0.00014172
  62         0.00006420
  63         0.00039568
  64         0.00003062
  65         0.00116325
  66        -0.00014172
  67        -0.00037476
  68        -0.00014225
Sym=     3a  
Ene=    -0.9341
Spin= Alpha
Occup=    2.00000
   1        -0.02668032
   2         0.74088763
   3        -0.17902774
   4        -0.00000022
   5        -0.00000049
   6         0.00000036
   7         0.00000001
   8         0.00000026
   9        -0.00000019
  10         0.00000002
  11        -0.00000001
  12         0.00000003
  13        -0.00000003
  14         0.00000001
  15         0.30822086
  16        -0.12614556
  17        -0.02556869
  18         0.00000000
  19        -0.00000000
  20         0.30822148
  21        -0.12614602
  22         0.00852271
  23        -0.01867713
  24         0.01524100
  25         0.30822266
  26        -0.12614652
  27         0.00852295
  28        -0.00386048
  29        -0.02379534
  30         0.30822273
  31        -0.12614655
  32         0.00852295
  33         0.02253764
  34         0.00855433
  35         0.00000000
  36         0.00000000
  37         0.00000000
  38         0.00000000
  39         0.00000000
  40         0.00000000
  41         0.00000000
  42         0.00000000
  43         0.00000000
  44         0.00000000
  45         0.00000000
  46         0.00000000
  47         0.00000000
  48         0.00000000
  49         0.00000000
  50         0.00000000
  51         0.00000000
  52         0.00000000
  53         0.00000000
  54         0.00000000
  55         0.00000000
  56         0.00000000
  57         0.00000000
  58         0.00000000
  59         0.00000000
  60         0.00000000
  61         0.00000000
  62         0.00000000
  63         0.00000000
  64         0.00000000
  65         0.00000000
  66         0.00000000
  67         0.00000000
  68         0.00000000
Sym=     4a  
Ene=    -0.9341
Spin= Alpha
Occup=    2.00000
   1         0.00000000
   2         0.00000000
   3         0.00000000
   4         0.00000000
   5         0.00000000
   6         0.00000000
   7         0.00000000
   8         0.00000000
   9         0.00000000
  10         0.00000000
  11         0.00000000
  12         0.00000000
  13         0.00000000
  14         0.00000000
  15         0.00000000
  16         0.00000000
  17         0.00000000
  18         0.00000000
  19         0.00000000
  20         0.00000000
  21         0.00000000
  22         0.00000000
  23         0.00000000
  24         0.00000000
  25         0.00000000
  26         0.00000000
  27         0.00000000
  28         0.00000000
  29         0.00000000
  30         0.00000000
  31         0.00000000
  32         0.00000000
  33         0.00000000
  34         0.00000000
  35        -0.02668032
  36         0.74088763
  37        -0.17902774
  38        -0.00000022
  39        -0.00000049
  40         0.00000036
  41         0.00000001
  42         0.00000026
  43        -0.00000019
  44         0.00000002
  45        -0.00000001
  46         0.00000003
  47        -0.00000003
  48         0.00000001
  49         0.30822086
  50        -0.12614556
  51        -0.02556869
  52         0.00000000
  53        -0.00000000
  54         0.30822148
  55        -0.12614602
  56         0.00852271
  57        -0.01867713
  58         0.01524100
  59         0.30822266
  60        -0.12614652
  61         0.00852295
  62        -0.00386048
  63        -0.02379534
  64         0.30822273
  65        -0.12614655
  66         0.00852295
  67         0.02253764
  68         0.00855433
Sym=     5a  
Ene=    -0.5377
Spin= Alpha
Occup=    2.00000
   1        -0.00000001
   2        -0.00000027
   3        -0.00000058
   4        -0.25788622
   5        -0.44547674
   6         0.36168780
   7         0.03829333
   8         0.06614852
   9        -0.05370676
  10         0.00890928
  11        -0.00888742
  12         0.01954512
  13        -0.00752969
  14         0.01094630
  15        -0.26987768
  16         0.06752903
  17         0.00921319
  18        -0.00896956
  19         0.00728249
  20        -0.47620087
  21         0.11915562
  22        -0.01366524
  23         0.00959811
  24        -0.00786918
  25         0.37182580
  26        -0.09303888
  27         0.00142335
  28        -0.01196622
  29        -0.01118841
  30         0.37425160
  31        -0.09364587
  32         0.00146651
  33         0.00863919
  34         0.01396603
  35         0.00000000
  36         0.00000000
  37         0.00000000
  38         0.00000000
  39         0.00000000
  40         0.00000000
  41         0.00000000
  42         0.00000000
  43         0.00000000
  44         0.00000000
  45         0.00000000
  46         0.00000000
  47         0.00000000
  48         0.00000000
  49         0.00000000
  50         0.00000000
  51         0.00000000
  52         0.00000000
  53         0.00000000
  54         0.00000000
  55         0.00000000
  56         0.00000000
  57         0.00000000
  58         0.00000000
  59         0.00000000
  60         0.00000000
  61         0.00000000
  62         0.00000000
  63         0.00000000
  64         0.00000000
  65         0.00000000
  66         0.00000000
  67         0.00000000
  68         0.00000000
Sym=     6a  
Ene=    -0.5377
Spin= Alpha
Occup=    2.00000
   1         0.00000000
   2         0.00000000
   3         0.00000000
   4         0.00000000
   5         0.00000000
   6         0.00000000
   7         0.00000000
   8         0.00000000
   9         0.00000000
  10         0.00000000
  11         0.00000000
  12         0.00000000
  13         0.00000000
  14         0.00000000
  15         0.00000000
  16         0.00000000
  17         0.00000000
  18         0.00000000
  19         0.00000000
  20         0.00000000
  21         0.00000000
  22         0.00000000
  23         0.00000000
  24         0.00000000
  25         0.00000000
  26         0.00000000
  27         0.00000000
  28         0.00000000
  29         0.00000000
  30         0.00000000
  31         0.00000000
  32         0.00000000
  33         0.00000000
  34         0.00000000
  35         0.00000001
  36         0.00000027
  37         0.00000058
  38         0.25788640
  39         0.44547668
  40        -0.36168774
  41        -0.03829336
  42        -0.06614851
  43         0.05370675
  44        -0.00890928
  45         0.00888742
  46        -0.01954511
  47         0.00752970
  48        -0.01094629
  49         0.26987787
  50        -0.06752908
  51        -0.00921320
  52         0.00896956
  53        -0.00728249
  54         0.47620073
  55        -0.11915558
  56         0.01366524
  57        -0.00959810
  58         0.00786918
  59        -0.37182581
  60         0.09303889
  61        -0.00142335
  62         0.01196622
  63         0.01118841
  64        -0.37425163
  65         0.09364588
  66        -0.00146651
  67        -0.00863920
  68        -0.01396603
Sym=     7a  
Ene=    -0.5377
Spin= Alpha
Occup=    2.00000
   1         0.00000000
   2         0.00000002
   3         0.00000002
   4         0.00427541
   5         0.39503353
   6         0.48959574
   7        -0.00063485
   8        -0.05865757
   9        -0.07269888
  10         0.01847746
  11        -0.01203049
  12        -0.00426593
  13         0.01087808
  14        -0.00970688
  15         0.00447426
  16        -0.00111954
  17        -0.00015274
  18         0.00795386
  19         0.00985784
  20        -0.00492263
  21         0.00123174
  22        -0.00000150
  23         0.00814580
  24         0.00970121
  25         0.53775335
  26        -0.13455650
  27         0.00965423
  28         0.00362002
  29        -0.01685554
  30        -0.53730493
  31         0.13444431
  32        -0.00947408
  33        -0.01732649
  34         0.00026256
  35         0.00000000
  36         0.00000000
  37         0.00000000
  38         0.00000000
  39         0.00000000
  40         0.00000000
  41         0.00000000
  42         0.00000000
  43         0.00000000
  44         0.00000000
  45         0.00000000
  46         0.00000000
  47         0.00000000
  48         0.00000000
  49         0.00000000
  50         0.00000000
  51         0.00000000
  52         0.00000000
  53         0.00000000
  54         0.00000000
  55         0.00000000
  56         0.00000000
  57         0.00000000
  58         0.00000000
  59         0.00000000
  60         0.00000000
  61         0.00000000
  62         0.00000000
  63         0.00000000
  64         0.00000000
  65         0.00000000
  66         0.00000000
  67         0.00000000
  68         0.00000000
Sym=     8a  
Ene=    -0.5377
Spin= Alpha
Occup=    2.00000
   1         0.00000000
   2         0.00000000
   3         0.00000000
   4         0.00000000
   5         0.00000000
   6         0.00000000
   7         0.00000000
   8         0.00000000
   9         0.00000000
  10         0.00000000
  11         0.00000000
  12         0.00000000
  13         0.00000000
  14         0.00000000
  15         0.00000000
  16         0.00000000
  17         0.00000000
  18         0.00000000
  19         0.00000000
  20         0.00000000
  21         0.00000000
  22         0.00000000
  23         0.00000000
  24         0.00000000
  25         0.00000000
  26         0.00000000
  27         0.00000000
  28         0.00000000
  29         0.00000000
  30         0.00000000
  31         0.00000000
  32         0.00000000
  33         0.00000000
  34         0.00000000
  35         0.00000000
  36         0.00000002
  37         0.00000002
  38         0.00427556
  39         0.39503347
  40         0.48959578
  41        -0.00063487
  42        -0.05865756
  43        -0.07269888
  44         0.01847746
  45        -0.01203049
  46        -0.00426592
  47         0.01087809
  48        -0.00970688
  49         0.00447440
  50        -0.00111958
  51        -0.00015275
  52         0.00795386
  53         0.00985784
  54        -0.00492276
  55         0.00123177
  56        -0.00000150
  57         0.00814581
  58         0.00970121
  59         0.53775333
  60        -0.13455650
  61         0.00965423
  62         0.00362002
  63        -0.01685554
  64        -0.53730494
  65         0.13444431
  66        -0.00947408
  67        -0.01732649
  68         0.00026256
Sym=     9a  
Ene=    -0.5377
Spin= Alpha
Occup=    2.00000
   1        -0.00000002
   2         0.00000069
   3        -0.00000032
   4        -0.57380238
   5         0.20315581
   6        -0.15890683
   7         0.08520157
   8        -0.03016578
   9         0.02359543
  10         0.01081132
  11         0.00390455
  12        -0.00881604
  13        -0.02195751
  14        -0.00499181
  15        -0.60048762
  16         0.15025291
  17         0.02049961
  18         0.00409047
  19        -0.00319953
  20         0.45458551
  21        -0.11374568
  22        -0.00346525
  23        -0.01363428
  24         0.01126430
  25         0.07750070
  26        -0.01939209
  27        -0.01017441
  28         0.00346587
  29        -0.00704946
  30         0.06840019
  31        -0.01711498
  32        -0.01033634
  33         0.00730873
  34        -0.00197802
  35         0.00000000
  36         0.00000000
  37         0.00000000
  38         0.00000000
  39         0.00000000
  40         0.00000000
  41         0.00000000
  42         0.00000000
  43         0.00000000
  44         0.00000000
  45         0.00000000
  46         0.00000000
  47         0.00000000
  48         0.00000000
  49         0.00000000
  50         0.00000000
  51         0.00000000
  52         0.00000000
  53         0.00000000
  54         0.00000000
  55         0.00000000
  56         0.00000000
  57         0.00000000
  58         0.00000000
  59         0.00000000
  60         0.00000000
  61         0.00000000
  62         0.00000000
  63         0.00000000
  64         0.00000000
  65         0.00000000
  66         0.00000000
  67         0.00000000
  68         0.00000000
Sym=    10a  
Ene=    -0.5377
Spin= Alpha
Occup=    2.00000
   1         0.00000000
   2         0.00000000
   3         0.00000000
   4         0.00000000
   5         0.00000000
   6         0.00000000
   7         0.00000000
   8         0.00000000
   9         0.00000000
  10         0.00000000
  11         0.00000000
  12         0.00000000
  13         0.00000000
  14         0.00000000
  15         0.00000000
  16         0.00000000
  17         0.00000000
  18         0.00000000
  19         0.00000000
  20         0.00000000
  21         0.00000000
  22         0.00000000
  23         0.00000000
  24         0.00000000
  25         0.00000000
  26         0.00000000
  27         0.00000000
  28         0.00000000
  29         0.00000000
  30         0.00000000
  31         0.00000000
  32         0.00000000
  33         0.00000000
  34         0.00000000
  35         0.00000002
  36        -0.00000069
  37         0.00000032
  38         0.57380230
  39        -0.20315605
  40         0.15890682
  41        -0.08520156
  42         0.03016582
  43        -0.02359543
  44        -0.01081133
  45        -0.00390455
  46         0.00881605
  47         0.02195751
  48         0.00499182
  49         0.60048753
  50        -0.15025289
  51        -0.02049961
  52        -0.00409048
  53         0.00319953
  54        -0.45458566
  55         0.11374571
  56         0.00346525
  57         0.01363428
  58        -0.01126431
  59        -0.07750072
  60         0.01939209
  61         0.01017441
  62        -0.00346588
  63         0.00704946
  64        -0.06839994
  65         0.01711491
  66         0.01033634
  67        -0.00730872
  68         0.00197803
Sym=    11a  
Ene=     0.1905
Spin= Alpha
Occup=    0.00000
   1         0.09692230
   2        -0.15725274
   3        -2.21056143
   4        -0.00000147
   5        -0.00000050
   6         0.00000037
   7        -0.00000356
   8        -0.00000029
   9         0.00000022
  10        -0.00000002
  11         0.00000023
  12         0.00000024
  13         0.00000013
  14        -0.00000028
  15         0.02347402
  16         0.82442684
  17        -0.01315235
  18         0.00000004
  19        -0.00000003
  20         0.02347410
  21         0.82442560
  22         0.00438411
  23        -0.00960735
  24         0.00783983
  25         0.02347357
  26         0.82442510
  27         0.00438413
  28        -0.00198588
  29        -0.01224009
  30         0.02347354
  31         0.82442507
  32         0.00438413
  33         0.01159313
  34         0.00440035
  35         0.00000000
  36         0.00000000
  37         0.00000000
  38         0.00000000
  39         0.00000000
  40         0.00000000
  41         0.00000000
  42         0.00000000
  43         0.00000000
  44         0.00000000
  45         0.00000000
  46         0.00000000
  47         0.00000000
  48         0.00000000
  49         0.00000000
  50         0.00000000
  51         0.00000000
  52         0.00000000
  53         0.00000000
  54         0.00000000
  55         0.00000000
  56         0.00000000
  57         0.00000000
  58         0.00000000
  59         0.00000000
  60         0.00000000
  61         0.00000000
  62         0.00000000
  63         0.00000000
  64         0.00000000
  65         0.00000000
  66         0.00000000
  67         0.00000000
  68         0.00000000
Sym=    12a  
Ene=     0.1905
Spin= Alpha
Occup=    0.00000
   1         0.00000000
   2         0.00000000
   3         0.00000000
   4         0.00000000
   5         0.00000000
   6         0.00000000
   7         0.00000000
   8         0.00000000
   9         0.00000000
  10         0.00000000
  11         0.00000000
  12         0.00000000
  13         0.00000000
  14         0.00000000
  15         0.00000000
  16         0.00000000
  17         0.00000000
  18         0.00000000
  19         0.00000000
  20         0.00000000
  21         0.00000000
  22         0.00000000
  23         0.00000000
  24         0.00000000
  25         0.00000000
  26         0.00000000
  27         0.00000000
  28         0.00000000
  29         0.00000000
  30         0.00000000
  31         0.00000000
  32         0.00000000
  33         0.00000000
  34         0.00000000
  35         0.09692230
  36        -0.15725274
  37        -2.21056143
  38        -0.00000147
  39        -0.00000050
  40         0.00000037
  41        -0.00000356
  42        -0.00000029
  43         0.00000022
  44        -0.00000002
  45         0.00000023
  46         0.00000024
  47         0.00000013
  48        -0.00000028
  49         0.02347402
  50         0.82442684
  51        -0.01315235
  52         0.00000004
  53        -0.00000003
  54         0.02347410
  55         0.82442560
  56         0.00438411
  57        -0.00960735
  58         0.00783983
  59         0.02347357
  60         0.82442510
  61         0.00438413
  62        -0.00198588
  63        -0.01224009
  64         0.02347354
  65         0.82442507
  66         0.00438413
  67         0.01159313
  68         0.00440035
Sym=    13a  
Ene=     0.2710
Spin= Alpha
Occup=    0.00000
   1         0.00000004
   2        -0.00000085
   3        -0.00000532
   4         0.41440290
   5        -0.13866235
   6         0.11079939
   7         1.08679596
   8        -0.36365042
   9         0.29057812
  10        -0.00901483
  11        -0.00314600
  12         0.00699701
  13         0.01832950
  14         0.00393713
  15        -0.08764442
  16        -1.97756363
  17         0.02749762
  18        -0.00017339
  19         0.00013855
  20         0.06460545
  21         1.45771139
  22         0.00714721
  23        -0.01470032
  24         0.01199288
  25         0.01183472
  26         0.26703048
  27         0.00173289
  28        -0.00072360
  29        -0.00325168
  30         0.01120520
  31         0.25282697
  32         0.00166830
  33         0.00286680
  34         0.00129267
  35         0.00000000
  36         0.00000000
  37         0.00000000
  38         0.00000000
  39         0.00000000
  40         0.00000000
  41         0.00000000
  42         0.00000000
  43         0.00000000
  44         0.00000000
  45         0.00000000
  46         0.00000000
  47         0.00000000
  48         0.00000000
  49         0.00000000
  50         0.00000000
  51         0.00000000
  52         0.00000000
  53         0.00000000
  54         0.00000000
  55         0.00000000
  56         0.00000000
  57         0.00000000
  58         0.00000000
  59         0.00000000
  60         0.00000000
  61         0.00000000
  62         0.00000000
  63         0.00000000
  64         0.00000000
  65         0.00000000
  66         0.00000000
  67         0.00000000
  68         0.00000000
Sym=    14a  
Ene=     0.2710
Spin= Alpha
Occup=    0.00000
   1         0.00000000
   2         0.00000000
   3         0.00000000
   4         0.00000000
   5         0.00000000
   6         0.00000000
   7         0.00000000
   8         0.00000000
   9         0.00000000
  10         0.00000000
  11         0.00000000
  12         0.00000000
  13         0.00000000
  14         0.00000000
  15         0.00000000
  16         0.00000000
  17         0.00000000
  18         0.00000000
  19         0.00000000
  20         0.00000000
  21         0.00000000
  22         0.00000000
  23         0.00000000
  24         0.00000000
  25         0.00000000
  26         0.00000000
  27         0.00000000
  28         0.00000000
  29         0.00000000
  30         0.00000000
  31         0.00000000
  32         0.00000000
  33         0.00000000
  34         0.00000000
  35         0.00000004
  36        -0.00000085
  37        -0.00000532
  38         0.41440576
  39        -0.13865735
  40         0.11079493
  41         1.08680348
  42        -0.36363728
  43         0.29056643
  44        -0.00901496
  45        -0.00314588
  46         0.00699674
  47         0.01832959
  48         0.00393699
  49        -0.08764503
  50        -1.97757732
  51         0.02749781
  52        -0.00017339
  53         0.00013854
  54         0.06460432
  55         1.45768582
  56         0.00714709
  57        -0.01470006
  58         0.01199267
  59         0.01183564
  60         0.26705122
  61         0.00173299
  62        -0.00072363
  63        -0.00325195
  64         0.01120603
  65         0.25284548
  66         0.00166839
  67         0.00286703
  68         0.00129275
Sym=    15a  
Ene=     0.2710
Spin= Alpha
Occup=    0.00000
   1         0.00000017
   2         0.00000003
   3        -0.00000823
   4         0.17704791
   5         0.30301146
   6        -0.28296856
   7         0.46432297
   8         0.79467372
   9        -0.74210896
  10        -0.00818171
  11         0.00803522
  12        -0.01605197
  13         0.00533121
  14        -0.00860439
  15        -0.03744189
  16        -0.84488335
  17         0.01174795
  18         0.00037879
  19        -0.00035376
  20        -0.06999969
  21        -1.57954835
  22        -0.00696156
  23         0.01612004
  24        -0.01319903
  25         0.05849726
  26         1.32000465
  27         0.00622422
  28        -0.00234008
  29        -0.01711340
  30         0.04894364
  31         1.10443646
  32         0.00524390
  33         0.01366034
  34         0.00468719
  35         0.00000000
  36         0.00000000
  37         0.00000000
  38         0.00000000
  39         0.00000000
  40         0.00000000
  41         0.00000000
  42         0.00000000
  43         0.00000000
  44         0.00000000
  45         0.00000000
  46         0.00000000
  47         0.00000000
  48         0.00000000
  49         0.00000000
  50         0.00000000
  51         0.00000000
  52         0.00000000
  53         0.00000000
  54         0.00000000