[Molden Format]
[N_Atoms]
                    5
[Atoms] (AU)
C1          1      6          -2.01348429      2.12110419      0.00000000
H2          2      1           0.08297787      2.12110419      0.00000000
H3          3      1          -2.71228611      3.65250045     -1.24965699
H4          4      1          -2.71230501      2.43763332      1.95104774
H5          5      1          -2.71230501      0.27317881     -0.70139075
[5D]
[Charge] (Mulliken)
   0.0000000000000000     
   0.0000000000000000     
   0.0000000000000000     
   0.0000000000000000     
   0.0000000000000000     
[GTO] (AU)
   1
   s   9
  6.665000000E+03  6.920001793E-04
  1.000000000E+03  5.329001381E-03
  2.280000000E+02  2.707700701E-02
  6.471000000E+01  1.017180264E-01
  2.106000000E+01  2.747400712E-01
  7.495000000E+00  4.485641162E-01
  2.797000000E+00  2.850740738E-01
  5.215000000E-01  1.520400394E-02
  1.596000000E-01 -3.191000827E-03
   s   9
  6.665000000E+03 -1.460000642E-04
  1.000000000E+03 -1.154000508E-03
  2.280000000E+02 -5.725002519E-03
  6.471000000E+01 -2.331201026E-02
  2.106000000E+01 -6.395502813E-02
  7.495000000E+00 -1.499810660E-01
  2.797000000E+00 -1.272620560E-01
  5.215000000E-01  5.445292395E-01
  1.596000000E-01  5.804962554E-01
   s   1
  1.596000000E-01  1.000000000E+00
   p   4
  9.439000000E+00  3.810902127E-02
  2.002000000E+00  2.094801169E-01
  5.456000000E-01  5.085572839E-01
  1.517000000E-01  4.688422617E-01
   p   1
  1.517000000E-01  1.000000000E+00
   d   1
  5.500000000E-01  1.000000000E+00
 
   2
   s   4
  1.301000000E+01  1.968498999E-02
  1.962000000E+00  1.379769298E-01
  4.446000000E-01  4.781477569E-01
  1.220000000E-01  5.012397451E-01
   s   1
  1.220000000E-01  1.000000000E+00
   p   1
  7.270000000E-01  1.000000000E+00
 
   3
   s   4
  1.301000000E+01  1.968498999E-02
  1.962000000E+00  1.379769298E-01
  4.446000000E-01  4.781477569E-01
  1.220000000E-01  5.012397451E-01
   s   1
  1.220000000E-01  1.000000000E+00
   p   1
  7.270000000E-01  1.000000000E+00
 
   4
   s   4
  1.301000000E+01  1.968498999E-02
  1.962000000E+00  1.379769298E-01
  4.446000000E-01  4.781477569E-01
  1.220000000E-01  5.012397451E-01
   s   1
  1.220000000E-01  1.000000000E+00
   p   1
  7.270000000E-01  1.000000000E+00
 
   5
   s   4
  1.301000000E+01  1.968498999E-02
  1.962000000E+00  1.379769298E-01
  4.446000000E-01  4.781477569E-01
  1.220000000E-01  5.012397451E-01
   s   1
  1.220000000E-01  1.000000000E+00
   p   1
  7.270000000E-01  1.000000000E+00
 
[MO]
Sym=     1a  
Ene=   -11.3400
Spin= Alpha
Occup=    2.00000
   1         0.99790646
   2        -0.00169513
   3         0.00521098
   4         0.00000000
   5        -0.00000000
   6         0.00000000
   7        -0.00000000
   8         0.00000000
   9        -0.00000000
  10         0.00000000
  11         0.00000000
  12        -0.00000000
  13         0.00000000
  14        -0.00000000
  15         0.00409394
  16        -0.00059455
  17         0.00000000
  18         0.00000000
  19        -0.00000000
  20         0.00409395
  21        -0.00059455
  22        -0.00000000
  23         0.00000000
  24        -0.00000000
  25         0.00409397
  26        -0.00059455
  27        -0.00000000
  28         0.00000000
  29         0.00000000
  30         0.00409397
  31        -0.00059455
  32        -0.00000000
  33         0.00000000
  34        -0.00000000
Sym=     2a  
Ene=    -1.3968
Spin= Alpha
Occup=    2.00000
   1        -0.06857841
   2         0.51827344
   3        -0.04360024
   4         0.00000024
   5        -0.00000016
   6         0.00000012
   7        -0.00000002
   8         0.00000001
   9        -0.00000001
  10        -0.00000000
  11        -0.00000000
  12         0.00000000
  13        -0.00000000
  14         0.00000000
  15         0.25393974
  16        -0.03687865
  17        -0.00000000
  18         0.00000000
  19        -0.00000000
  20         0.25393966
  21        -0.03687864
  22         0.00000000
  23        -0.00000000
  24         0.00000000
  25         0.25394010
  26        -0.03687870
  27         0.00000000
  28         0.00000000
  29        -0.00000000
  30         0.25394012
  31        -0.03687871
  32        -0.00000000
  33        -0.00000000
  34        -0.00000000
Sym=     3a  
Ene=    -0.6786
Spin= Alpha
Occup=    2.00000
   1        -0.00000010
   2         0.00000011
   3        -0.00000001
   4        -0.28125731
   5        -0.42271522
   6         0.37949420
   7         0.02332143
   8         0.03505090
   9        -0.03146708
  10         0.00000000
  11         0.00000000
  12        -0.00000000
  13         0.00000000
  14        -0.00000000
  15        -0.25524157
  16         0.03706771
  17        -0.00000000
  18        -0.00000000
  19         0.00000000
  20        -0.40042479
  21         0.05815209
  22        -0.00000000
  23         0.00000000
  24         0.00000000
  25         0.34766615
  26        -0.05049016
  27        -0.00000000
  28        -0.00000000
  29        -0.00000000
  30         0.30799873
  31        -0.04472942
  32         0.00000000
  33         0.00000000
  34         0.00000000
Sym=     4a  
Ene=    -0.6786
Spin= Alpha
Occup=    2.00000
   1         0.00000001
   2        -0.00000001
   3         0.00000000
   4         0.02367116
   5         0.41437357
   6         0.47911098
   7        -0.00196278
   8        -0.03435922
   9        -0.03972715
  10         0.00000000
  11         0.00000000
  12        -0.00000000
  13         0.00000000
  14        -0.00000000
  15         0.02148166
  16        -0.00311970
  17         0.00000000
  18        -0.00000000
  19         0.00000000
  20         0.00835630
  21        -0.00121355
  22         0.00000000
  23        -0.00000000
  24         0.00000000
  25         0.45425396
  26        -0.06596949
  27         0.00000000
  28        -0.00000000
  29        -0.00000000
  30        -0.48409179
  31         0.07030272
  32         0.00000000
  33        -0.00000000
  34         0.00000000
Sym=     5a  
Ene=    -0.6786
Spin= Alpha
Occup=    2.00000
   1        -0.00000005
   2         0.00000126
   3        -0.00000011
   4        -0.56757959
   5         0.22675518
   6        -0.16807395
   7         0.04706283
   8        -0.01880219
   9         0.01393644
  10         0.00000000
  11        -0.00000000
  12        -0.00000000
  13         0.00000000
  14        -0.00000000
  15        -0.51508081
  16         0.07480313
  17         0.00000000
  18        -0.00000000
  19         0.00000000
  20         0.41292570
  21        -0.05996755
  22         0.00000000
  23        -0.00000000
  24         0.00000000
  25         0.06081573
  26        -0.00883203
  27         0.00000000
  28        -0.00000000
  29         0.00000000
  30         0.04133831
  31        -0.00600340
  32         0.00000000
  33        -0.00000000
  34        -0.00000000
Sym=     6a  
Ene=    -0.1433
Spin= Alpha
Occup=    0.00000
   1         0.00000143
   2         0.00001358
   3        -0.00000113
   4         1.15865888
   5        -0.38838672
   6         0.30636331
   7        -0.09607422
   8         0.03220443
   9        -0.02540318
  10         0.00000000
  11        -0.00000000
  12        -0.00000000
  13        -0.00000000
  14        -0.00000000
  15        -1.26092425
  16         0.18311899
  17        -0.00000000
  18        -0.00000000
  19         0.00000000
  20         0.92777146
  21        -0.13473654
  22         0.00000000
  23         0.00000000
  24        -0.00000000
  25         0.17384091
  26        -0.02524622
  27         0.00000000
  28         0.00000000
  29         0.00000000
  30         0.15928774
  31        -0.02313272
  32         0.00000000
  33        -0.00000000
  34         0.00000000
Sym=     7a  
Ene=    -0.1433
Spin= Alpha
Occup=    0.00000
   1         0.00000022
   2         0.00000190
   3        -0.00000016
   4         0.00345093
   5         0.78657656
   6         0.98411738
   7        -0.00028615
   8        -0.06522172
   9        -0.08160151
  10        -0.00000000
  11         0.00000000
  12         0.00000000
  13         0.00000000
  14         0.00000000
  15        -0.00375634
  16         0.00054552
  17         0.00000000
  18         0.00000000
  19         0.00000000
  20         0.01435731
  21        -0.00208505
  22        -0.00000000
  23         0.00000000
  24         0.00000000
  25        -1.12468165
  26         0.16333302
  27         0.00000000
  28         0.00000000
  29        -0.00000000
  30         1.11407757
  31        -0.16179303
  32        -0.00000000
  33        -0.00000000
  34         0.00000000
Sym=     8a  
Ene=    -0.1433
Spin= Alpha
Occup=    0.00000
   1         0.00000624
   2         0.00005476
   3        -0.00000454
   4         0.49466657
   5         0.90424636
   6        -0.72447268
   7        -0.04101700
   8        -0.07497872
   9         0.06007217
  10         0.00000000
  11        -0.00000000
  12         0.00000000
  13        -0.00000000
  14        -0.00000000
  15        -0.53833927
  16         0.07818086
  17        -0.00000000
  18         0.00000000
  19        -0.00000000
  20        -1.00935020
  21         0.14658389
  22         0.00000000
  23         0.00000000
  24        -0.00000000
  25         0.76456443
  26        -0.11103463
  27        -0.00000000
  28         0.00000000
  29         0.00000000
  30         0.78303443
  31        -0.11371696
  32         0.00000000
  33        -0.00000000
  34        -0.00000000
Sym=     9a  
Ene=    -0.1342
Spin= Alpha
Occup=    0.00000
   1        -0.22022290
   2        -1.83928884
   3         0.15237676
   4         0.00002351
   5         0.00002672
   6        -0.00001966
   7        -0.00000195
   8        -0.00000222
   9         0.00000163
  10         0.00000000
  11        -0.00000000
  12         0.00000000
  13        -0.00000000
  14         0.00000000
  15         0.74420291
  16        -0.10807761
  17         0.00000000
  18        -0.00000000
  19         0.00000000
  20         0.74420816
  21        -0.10807837
  22        -0.00000000
  23        -0.00000000
  24         0.00000000
  25         0.74425759
  26        -0.10808555
  27        -0.00000000
  28         0.00000000
  29         0.00000000
  30         0.74426054
  31        -0.10808598
  32        -0.00000000
  33        -0.00000000
  34         0.00000000
Sym=    10a  
Ene=     3.7369
Spin= Alpha
Occup=    0.00000
   1         0.00000045
   2         0.00000167
   3        -0.00001526
   4        -0.05694954
   5        -0.09823896
   6         0.07917259
   7         0.73939287
   8         1.27547251
   9        -1.02792610
  10        -0.10686158
  11         0.10657322
  12        -0.23559770
  13         0.09161876
  14        -0.13223835
  15         0.27235078
  16        -1.27091478
  17         0.13708371
  18        -0.04765167
  19         0.03840334
  20         0.47809702
  21        -2.23102580
  22        -0.12399958
  23         0.16355244
  24        -0.13394441
  25        -0.37221970
  26         1.73696005
  27         0.04741183
  28        -0.08163871
  29        -0.17108986
  30        -0.37822727
  31         1.76499446
  32         0.04862290
  33         0.15397130
  34         0.11493031
Sym=    11a  
Ene=     3.7369
Spin= Alpha
Occup=    0.00000
   1         0.00000003
   2         0.00000011
   3        -0.00000064
   4        -0.00062538
   5        -0.08664082
   6        -0.10795572
   7         0.00811977
   8         1.12490417
   9         1.40164601
  10         0.22321343
  11        -0.14532213
  12        -0.05074794
  13         0.13055608
  14        -0.11662969
  15         0.00299098
  16        -0.01395708
  17         0.00150543
  18        -0.04202615
  19        -0.05236517
  20        -0.00607519
  21         0.02834953
  22         0.00092129
  23        -0.04470970
  24        -0.05017487
  25         0.54205892
  26        -2.52948273
  27        -0.10957482
  28         0.00746793
  29         0.25271106
  30        -0.53897470
  31         2.51509086
  32         0.10834642
  33         0.24528134
  34         0.05668394
Sym=    12a  
Ene=     3.7369
Spin= Alpha
Occup=    0.00000
   1        -0.00000094
   2        -0.00000357
   3         0.00000220
   4        -0.12616808
   5         0.04477069
   6        -0.03520026
   7         1.63808231
   8        -0.58127581
   9         0.45701902
  10        -0.12992449
  11        -0.04738190
  12         0.10659291
  13         0.26466207
  14         0.06026442
  15         0.60340497
  16        -2.81571682
  17         0.30370958
  18         0.02171656
  19        -0.01707431
  20        -0.45788770
  21         2.13668032
  22         0.03110122
  23        -0.18055534
  24         0.14798453
  25        -0.07679307
  26         0.35834694
  27        -0.04571817
  28         0.01470443
  29        -0.06029378
  30        -0.06872278
  31         0.32068786
  32        -0.04734501
  33         0.05834968
  34        -0.00316959
Sym=    13a  
Ene=     3.8152
Spin= Alpha
Occup=    0.00000
   1         0.38281862
   2         1.47196912
   3        -4.30016979
   4         0.00000228
   5         0.00000042
   6        -0.00000031
   7        -0.00000735
   8        -0.00000200
   9         0.00000147
  10         0.00000000
  11         0.00000178
  12         0.00000281
  13         0.00000106
  14        -0.00000219
  15        -0.40755098
  16         1.26776135
  17        -0.20548824
  18         0.00000029
  19        -0.00000023
  20        -0.40755451
  21         1.26776780
  22         0.06849527
  23        -0.15010258
  24         0.12248739
  25        -0.40754989
  26         1.26775816
  27         0.06849648
  28        -0.03102538
  29        -0.19123519
  30        -0.40754961
  31         1.26775758
  32         0.06849647
  33         0.18112741
  34         0.06874822
Sym=    14a  
Ene=     4.2978
Spin= Alpha
Occup=    0.00000
   1        -0.00000038
   2        -0.00000069
   3        -0.00000566
   4        -0.31586514
   5        -0.47688712
   6         0.38125792
   7         1.06760361
   8         1.61184942
   9        -1.28862869
  10        -0.08333811
  11         0.07634737
  12        -0.16973510
  13         0.07838737
  14        -0.09549733
  15        -0.65707350
  16        -0.05340918
  17         0.15561512
  18        -0.03561847
  19         0.02847595
  20        -0.97838962
  21        -0.07952795
  22        -0.11253599
  23         0.15930000
  24        -0.13058232
  25         0.80734550
  26         0.06562557
  27         0.04980443
  28        -0.06886354
  29        -0.17644270
  30         0.82812105
  31         0.06731440
  32         0.05169322
  33         0.16346377
  34         0.10403879
Sym=    15a  
Ene=     4.2978
Spin= Alpha
Occup=    0.00000
   1        -0.00000002
   2        -0.00000009
   3        -0.00000003
   4        -0.00206539
   5        -0.42842184
   6        -0.53759202
   7         0.00698080
   8         1.44802810
   9         1.81701385
  10         0.16519590
  11        -0.10765605
  12        -0.03683503
  13         0.09620315
  14        -0.08579415
  15        -0.00429648
  16        -0.00034927
  17         0.00101757
  18        -0.03199929
  19        -0.04015332
  20         0.01703246
  21         0.00138447
  22         0.00139410
  23        -0.03539171
  24        -0.03738323
  25        -1.17388020
  26        -0.09542196
  27        -0.10687613
  28         0.01633798
  29         0.25780181
  30         1.16114439
  31         0.09438673
  32         0.10540977
  33         0.24714604
  34         0.06579619
Sym=    16a  
Ene=     4.2978
Spin= Alpha
Occup=    0.00000
   1         0.00000075
   2         0.00000455
   3        -0.00001123
   4        -0.61055884
   5         0.24816534
   6        -0.19542405
   7         2.06362368
   8        -0.83877340
   9         0.66051327
  10        -0.09167054
  11        -0.03913324
  12         0.08793765
  13         0.19160857
  14         0.04969464
  15        -1.27009672
  16        -0.10323979
  17         0.30080207
  18         0.01853713
  19        -0.01459755
  20         1.04277556
  21         0.08476670
  22         0.04919438
  23        -0.18921501
  24         0.15493326
  25         0.12298227
  26         0.00999901
  27        -0.03442329
  28         0.01347088
  29        -0.04581322
  30         0.10433540
  31         0.00848323
  32        -0.03611862
  33         0.04361968
  34        -0.00507528
Sym=    17a  
Ene=     4.6065
Spin= Alpha
Occup=    0.00000
   1        -0.00000778
   2        -0.00003278
   3         0.00006412
   4        -0.00000081
   5        -0.00000013
   6         0.00000014
   7         0.00000217
   8         0.00000109
   9        -0.00000098
  10         0.04152068
  11         0.21100722
  12         0.23002510
  13         0.02397014
  14        -0.25670899
  15        -0.00001099
  16        -0.00000135
  17         0.00000262
  18        -0.25412763
  19         0.20888540
  20        -0.00001037
  21        -0.00000060
  22        -0.31014442
  23        -0.08569192
  24         0.06841565
  25        -0.00000831
  26        -0.00000141
  27         0.15602708
  28         0.28946209
  29         0.00892639
  30        -0.00000839
  31        -0.00000142
  32         0.15411528
  33         0.05035543
  34        -0.28622578
Sym=    18a  
Ene=     4.6065
Spin= Alpha
Occup=    0.00000
   1         0.00000008
   2         0.00000035
   3        -0.00000068
   4         0.00000004
   5        -0.00000063
   6        -0.00000072
   7        -0.00000012
   8         0.00000107
   9         0.00000120
  10         0.19921148
  11         0.25671008
  12        -0.04794397
  13         0.11501480
  14         0.21100811
  15         0.00000018
  16         0.00000002
  17        -0.00000004
  18         0.20888535
  19         0.25412752
  20         0.00000003
  21         0.00000000
  22         0.00110375
  23        -0.20767392
  24        -0.25511190
  25        -0.00000043
  26        -0.00000064
  27         0.26803797
  28        -0.14817860
  29         0.12004505
  30         0.00000063
  31         0.00000066
  32        -0.26914171
  33         0.14696935
  34        -0.11905804
Sym=    19a  
Ene=     4.9436
Spin= Alpha
Occup=    0.00000
   1         0.81800025
   2         3.35022071
   3        -6.32228660
   4         0.00000117
   5         0.00000014
   6        -0.00000010
   7        -0.00000424
   8         0.00000118
   9        -0.00000087
  10        -0.00000001
  11         0.00000202
  12         0.00000227
  13         0.00000092
  14        -0.00000251
  15         1.17088204
  16        -0.05781503
  17        -0.06945141
  18        -0.00000345
  19         0.00000281
  20         1.17088026
  21        -0.05781421
  22         0.02314276
  23        -0.05073256
  24         0.04139911
  25         1.17088125
  26        -0.05781246
  27         0.02315004
  28        -0.01048041
  29        -0.06463243
  30         1.17088131
  31        -0.05781235
  32         0.02315006
  33         0.06121726
  34         0.02322988
Sym=    20a  
Ene=     5.0187
Spin= Alpha
Occup=    0.00000
   1         0.00000000
   2         0.00000000
   3        -0.00000000
   4         0.00000005
   5         0.00000089
   6         0.00000124
   7        -0.00000020
   8        -0.00000391
   9        -0.00000542
  10        -0.00000127
  11         0.00000105
  12         0.00000022
  13        -0.00000079
  14         0.00000078
  15         0.00000015
  16        -0.00000001
  17         0.00000002
  18        -0.27511774
  19        -0.35067267
  20        -0.00000034
  21         0.00000002
  22        -0.00806427
  23         0.36252572
  24         0.44876794
  25         0.00000448
  26        -0.00000036
  27         0.36789079
  28        -0.33111471
  29         0.18549002
  30        -0.00000429
  31         0.00000035
  32        -0.35982638
  33         0.24370993
  34        -0.28358086
Sym=    21a  
Ene=     5.0187
Spin= Alpha
Occup=    0.00000
   1         0.00000000
   2         0.00000000
   3        -0.00000000
   4         0.00000214
   5        -0.00000186
   6         0.00000155
   7        -0.00000946
   8         0.00000836
   9        -0.00000694
  10         0.00000095
  11         0.00000130
  12        -0.00000270
  13        -0.00000279
  14        -0.00000159
  15         0.00000770
  16        -0.00000068
  17         0.00000243
  18         0.49869800
  19        -0.39543456
  20        -0.00001106
  21         0.00000108
  22        -0.59999319
  23        -0.16815684
  24         0.12945116
  25         0.00000174
  26        -0.00000020
  27         0.29271471
  28        -0.16323122
  29         0.13132635
  30         0.00000163
  31        -0.00000020
  32         0.30728377
  33        -0.16731675
  34         0.13466269
Sym=    22a  
Ene=     5.0187
Spin= Alpha
Occup=    0.00000
   1         0.00000000
   2         0.00000000
   3        -0.00000000
   4         0.00000003
   5        -0.00000266
   6        -0.00000329
   7        -0.00000013
   8         0.00001108
   9         0.00001370
  10         0.00000321
  11        -0.00000199
  12        -0.00000075
  13         0.00000182
  14        -0.00000161
  15         0.00000009
  16        -0.00000000
  17         0.00000000
  18        -0.28406309
  19        -0.35460231
  20         0.00000002
  21         0.00000001
  22        -0.00387214
  23        -0.17099171
  24        -0.20737705
  25        -0.00001087
  26         0.00000038
  27         0.37289165
  28         0.50947421
  29         0.05090476
  30         0.00001076
  31        -0.00000038
  32        -0.36901941
  33        -0.05442860
  34         0.51106322
Sym=    23a  
Ene=     5.3267
Spin= Alpha
Occup=    0.00000
   1        -0.00000099
   2        -0.00000320
   3         0.00000681
   4         0.01425619
   5         0.10873863
   6        -0.09183596
   7        -0.10774246
   8        -0.82178811
   9         0.69404671
  10         0.03530050
  11        -0.06460138
  12         0.13821736
  13         0.00032996
  14         0.07649135
  15         0.07221067
  16        -0.01063438
  17         0.03630102
  18         0.47490569
  19        -0.40108476
  20         0.65558884
  21        -0.09658951
  22         0.14079982
  23         0.30277925
  24        -0.26062519
  25        -0.37384418
  26         0.05507653
  27         0.01747340
  28         0.49519093
  29        -0.27603119
  30        -0.35395961
  31         0.05214675
  32         0.01985569
  33         0.36276087
  34        -0.44364742
Sym=    24a  
Ene=     5.3267
Spin= Alpha
Occup=    0.00000
   1         0.00000278
   2         0.00001204
   3        -0.00002334
   4         0.14218740
   5        -0.01496216
   6         0.00435404
   7        -1.07458158
   8         0.11307520
   9        -0.03290444
  10         0.08927934
  11         0.00306347
  12        -0.01519817
  13        -0.14849804
  14        -0.01052612
  15         0.72027665
  16        -0.10612599
  17         0.36211926
  18        -0.06535008
  19         0.01901915
  20        -0.30859618
  21         0.04547297
  22         0.58403594
  23         0.01567073
  24        -0.04709598
  25        -0.23100233
  26         0.03403357
  27         0.59332228
  28        -0.05281093
  29         0.09628737
  30        -0.18065591
  31         0.02661562
  32         0.59935421
  33        -0.12258356
  34        -0.00270876
Sym=    25a  
Ene=     5.3267
Spin= Alpha
Occup=    0.00000
   1         0.00000004
   2         0.00000024
   3        -0.00000042
   4         0.00629613
   5         0.09172109
   6         0.10957983
   7        -0.04758319
   8        -0.69318495
   9        -0.82815274
  10        -0.11646281
  11         0.07708591
  12         0.03024698
  13        -0.07609770
  14         0.06452272
  15         0.03189405
  16        -0.00469914
  17         0.01603473
  18         0.40058683
  19         0.47858415
  20        -0.00211584
  21         0.00031202
  22         0.02724503
  23         0.40114273
  24         0.47813144
  25         0.57611558
  26        -0.08488257
  27         0.09652187
  28         0.36933323
  29         0.28588183
  30        -0.60589325
  31         0.08926951
  32        -0.04509310
  33         0.20863377
  34         0.40573698
Sym=    26a  
Ene=     5.6846
Spin= Alpha
Occup=    0.00000
   1         0.00000106
   2         0.00000308
   3        -0.00000615
   4        -0.21070416
   5        -0.11997045
   6         0.09724442
   7         0.07656518
   8         0.04359588
   9        -0.03533740
  10        -0.54330259
  11         0.24038073
  12        -0.52924052
  13         0.72795974
  14        -0.29655780
  15        -0.80012604
  16         0.64090086
  17        -0.16839350
  18         0.22201907
  19        -0.17996194
  20        -0.28620101
  21         0.22924548
  22         0.45649039
  23         0.07613571
  24        -0.06091765
  25         0.54159712
  26        -0.43381648
  27         0.26394646
  28         0.27907340
  29         0.17174291
  30         0.54474156
  31        -0.43633511
  32         0.26321517
  33        -0.11303142
  34        -0.30712744
Sym=    27a  
Ene=     5.6846
Spin= Alpha
Occup=    0.00000
   1         0.00000166
   2         0.00000661
   3        -0.00000951
   4        -0.15440911
   5         0.16050769
   6        -0.13653482
   7         0.05609904
   8        -0.05831640
   9         0.04960649
  10        -0.18985120
  11        -0.33748898
  12         0.71848489
  13         0.65372323
  14         0.39674513
  15        -0.58634447
  16         0.46966951
  17        -0.12340169
  18        -0.29703130
  19         0.25266794
  20         0.94973194
  21        -0.76074186
  22         0.06483397
  23         0.18705195
  24        -0.14235598
  25        -0.19503706
  26         0.15622641
  27         0.33111308
  28        -0.31758198
  29         0.12601402
  30        -0.16834021
  31         0.13484204
  32         0.32490338
  33        -0.19349257
  34         0.29196941
Sym=    28a  
Ene=     5.6846
Spin= Alpha
Occup=    0.00000
   1        -0.00000007
   2        -0.00000029
   3         0.00000037
   4         0.00295401
   5        -0.16759973
   6        -0.20036758
   7        -0.00107316
   8         0.06089287
   9         0.07279813
  10         0.77907802
  11        -0.49528070
  12        -0.19398722
  13         0.43519764
  14        -0.41428297
  15         0.01121724
  16        -0.00898521
  17         0.00236075
  18         0.31016027
  19         0.37080065
  20        -0.01509796
  21         0.01209358
  22        -0.00195482
  23         0.30246200
  24         0.37707693
  25        -0.80794062
  26         0.64716778
  27         0.18246049
  28         0.22503211
  29        -0.15386853
  30         0.81182108
  31        -0.65027607
  32        -0.19429637
  33        -0.18916265
  34         0.18127101
Sym=    29a  
Ene=     5.9735
Spin= Alpha
Occup=    0.00000
   1        -0.00000008
   2        -0.00000034
   3         0.00000039
   4         0.00000001
   5        -0.00000352
   6        -0.00000427
   7        -0.00000003
   8         0.00000207
   9         0.00000250
  10         0.65261988
  11         0.84097264
  12        -0.15706521
  13         0.37679044
  14         0.69125495
  15        -0.00000015
  16         0.00000006
  17         0.00000001
  18        -0.37898844
  19        -0.46107289
  20        -0.00000006
  21         0.00000004
  22        -0.00200263
  23         0.37679807
  24         0.46286851
  25        -0.00000757
  26         0.00000677
  27        -0.48631761
  28         0.26885267
  29        -0.21780905
  30         0.00000744
  31        -0.00000673
  32         0.48832047
  33        -0.26665991
  34         0.21601657
Sym=    30a  
Ene=     5.9735
Spin= Alpha
Occup=    0.00000
   1         0.00000762
   2         0.00003150
   3        -0.00003690
   4        -0.00000025
   5         0.00000401
   6        -0.00000329
   7         0.00000056
   8        -0.00000191
   9         0.00000155
  10         0.13602670
  11         0.69126023
  12         0.75358019
  13         0.07852543
  14        -0.84097925
  15         0.00000910
  16        -0.00000370
  17         0.00000377
  18         0.46107303
  19        -0.37898849
  20         0.00001777
  21        -0.00001149
  22         0.56270812
  23         0.15548454
  24        -0.12413748
  25         0.00000221
  26         0.00000122
  27        -0.28309263
  28        -0.52519366
  29        -0.01618760
  30         0.00000233
  31         0.00000115
  32        -0.27962390
  33        -0.09137195
  34         0.51932034
Sym=    31a  
Ene=     6.6338
Spin= Alpha
Occup=    0.00000
   1        -0.57743402
   2        -2.78954371
   3         0.57600538
   4        -0.00001587
   5        -0.00000603
   6         0.00000443
   7         0.00000087
   8         0.00000037
   9        -0.00000027
  10         0.00000582
  11         0.00000750
  12         0.00001827
  13        -0.00000347
  14        -0.00000899
  15         0.89244170
  16        -0.29328451
  17        -0.78486043
  18         0.00000441
  19        -0.00000354
  20         0.89243733
  21        -0.29328583
  22         0.26161834
  23        -0.57330889
  24         0.46783410
  25         0.89242347
  26        -0.29328188
  27         0.26161469
  28        -0.11850302
  29        -0.73040803
  30         0.89242264
  31        -0.29328164
  32         0.26161446
  33         0.69180102
  34         0.26258224
Sym=    32a  
Ene=     7.1004
Spin= Alpha
Occup=    0.00000
   1        -0.00000796
   2        -0.00003433
   3         0.00001258
   4         1.90069599
   5        -0.45409331
   6         0.35908898
   7        -0.38842262
   8         0.09279984
   9        -0.07338448
  10        -0.57233732
  11        -0.13569248