[Molden Format]
[N_Atoms]
                    5
[Atoms] (AU)
C1          1      6          -2.01348429      2.12110419      0.00000000
H2          2      1           0.08297787      2.12110419      0.00000000
H3          3      1          -2.71228611      3.65250045     -1.24965699
H4          4      1          -2.71230501      2.43763332      1.95104774
H5          5      1          -2.71230501      0.27317881     -0.70139075
[5D]
[Charge] (Mulliken)
 -0.16650490617281744     
   4.1625964980816832E-002
   4.1626446405689022E-002
   4.1626253160378934E-002
   4.1626241625933091E-002
[GTO] (AU)
   1
   s   9
  6.665000000E+03  6.920001793E-04
  1.000000000E+03  5.329001381E-03
  2.280000000E+02  2.707700701E-02
  6.471000000E+01  1.017180264E-01
  2.106000000E+01  2.747400712E-01
  7.495000000E+00  4.485641162E-01
  2.797000000E+00  2.850740738E-01
  5.215000000E-01  1.520400394E-02
  1.596000000E-01 -3.191000827E-03
   s   9
  6.665000000E+03 -1.460000642E-04
  1.000000000E+03 -1.154000508E-03
  2.280000000E+02 -5.725002519E-03
  6.471000000E+01 -2.331201026E-02
  2.106000000E+01 -6.395502813E-02
  7.495000000E+00 -1.499810660E-01
  2.797000000E+00 -1.272620560E-01
  5.215000000E-01  5.445292395E-01
  1.596000000E-01  5.804962554E-01
   s   1
  1.596000000E-01  1.000000000E+00
   p   4
  9.439000000E+00  3.810902127E-02
  2.002000000E+00  2.094801169E-01
  5.456000000E-01  5.085572839E-01
  1.517000000E-01  4.688422617E-01
   p   1
  1.517000000E-01  1.000000000E+00
   d   1
  5.500000000E-01  1.000000000E+00
 
   2
   s   4
  1.301000000E+01  1.968498999E-02
  1.962000000E+00  1.379769298E-01
  4.446000000E-01  4.781477569E-01
  1.220000000E-01  5.012397451E-01
   s   1
  1.220000000E-01  1.000000000E+00
   p   1
  7.270000000E-01  1.000000000E+00
 
   3
   s   4
  1.301000000E+01  1.968498999E-02
  1.962000000E+00  1.379769298E-01
  4.446000000E-01  4.781477569E-01
  1.220000000E-01  5.012397451E-01
   s   1
  1.220000000E-01  1.000000000E+00
   p   1
  7.270000000E-01  1.000000000E+00
 
   4
   s   4
  1.301000000E+01  1.968498999E-02
  1.962000000E+00  1.379769298E-01
  4.446000000E-01  4.781477569E-01
  1.220000000E-01  5.012397451E-01
   s   1
  1.220000000E-01  1.000000000E+00
   p   1
  7.270000000E-01  1.000000000E+00
 
   5
   s   4
  1.301000000E+01  1.968498999E-02
  1.962000000E+00  1.379769298E-01
  4.446000000E-01  4.781477569E-01
  1.220000000E-01  5.012397451E-01
   s   1
  1.220000000E-01  1.000000000E+00
   p   1
  7.270000000E-01  1.000000000E+00
 
[MO]
Sym=     1a  
Ene=   -11.2250
Spin= Alpha
Occup=    2.00000
   1         1.00156937
   2         0.00886586
   3        -0.00987155
   4         0.00000000
   5        -0.00000000
   6         0.00000000
   7        -0.00000001
   8         0.00000000
   9        -0.00000000
  10         0.00000000
  11        -0.00000001
  12        -0.00000001
  13        -0.00000001
  14         0.00000001
  15         0.00003063
  16         0.00116324
  17         0.00042517
  18        -0.00000000
  19         0.00000000
  20         0.00003062
  21         0.00116325
  22        -0.00014172
  23         0.00031057
  24        -0.00025343
  25         0.00003062
  26         0.00116325
  27        -0.00014172
  28         0.00006420
  29         0.00039568
  30         0.00003062
  31         0.00116325
  32        -0.00014172
  33        -0.00037476
  34        -0.00014225
Sym=     2a  
Ene=    -0.9341
Spin= Alpha
Occup=    2.00000
   1        -0.02668032
   2         0.74088763
   3        -0.17902774
   4        -0.00000022
   5        -0.00000049
   6         0.00000036
   7         0.00000001
   8         0.00000026
   9        -0.00000019
  10         0.00000002
  11        -0.00000001
  12         0.00000003
  13        -0.00000003
  14         0.00000001
  15         0.30822086
  16        -0.12614556
  17        -0.02556869
  18         0.00000000
  19        -0.00000000
  20         0.30822148
  21        -0.12614602
  22         0.00852271
  23        -0.01867713
  24         0.01524100
  25         0.30822266
  26        -0.12614652
  27         0.00852295
  28        -0.00386048
  29        -0.02379534
  30         0.30822273
  31        -0.12614655
  32         0.00852295
  33         0.02253764
  34         0.00855433
Sym=     3a  
Ene=    -0.5377
Spin= Alpha
Occup=    2.00000
   1        -0.00000001
   2        -0.00000027
   3        -0.00000058
   4        -0.25788773
   5        -0.44547583
   6         0.36168784
   7         0.03829356
   8         0.06614839
   9        -0.05370676
  10         0.00890932
  11        -0.00888743
  12         0.01954509
  13        -0.00752974
  14         0.01094627
  15        -0.26987926
  16         0.06752942
  17         0.00921325
  18        -0.00896954
  19         0.00728249
  20        -0.47619968
  21         0.11915532
  22        -0.01366525
  23         0.00959808
  24        -0.00786914
  25         0.37182651
  26        -0.09303906
  27         0.00142333
  28        -0.01196621
  29        -0.01118845
  30         0.37425127
  31        -0.09364579
  32         0.00146647
  33         0.00863920
  34         0.01396602
Sym=     4a  
Ene=    -0.5377
Spin= Alpha
Occup=    2.00000
   1         0.00000000
   2         0.00000002
   3         0.00000002
   4         0.00427555
   5         0.39503399
   6         0.48959536
   7        -0.00063487
   8        -0.05865764
   9        -0.07269882
  10         0.01847745
  11        -0.01203048
  12        -0.00426595
  13         0.01087808
  14        -0.00970690
  15         0.00447439
  16        -0.00111958
  17        -0.00015275
  18         0.00795387
  19         0.00985783
  20        -0.00492209
  21         0.00123161
  22        -0.00000149
  23         0.00814579
  24         0.00970122
  25         0.53775301
  26        -0.13455642
  27         0.00965422
  28         0.00362004
  29        -0.01685553
  30        -0.53730528
  31         0.13444440
  32        -0.00947408
  33        -0.01732650
  34         0.00026254
Sym=     5a  
Ene=    -0.5377
Spin= Alpha
Occup=    2.00000
   1        -0.00000002
   2         0.00000069
   3        -0.00000032
   4        -0.57380170
   5         0.20315691
   6        -0.15890788
   7         0.08520147
   8        -0.03016595
   9         0.02359559
  10         0.01081130
  11         0.00390458
  12        -0.00881609
  13        -0.02195750
  14        -0.00499184
  15        -0.60048691
  16         0.15025273
  17         0.02049959
  18         0.00409049
  19        -0.00319956
  20         0.45458677
  21        -0.11374599
  22        -0.00346522
  23        -0.01363431
  24         0.01126432
  25         0.07749961
  26        -0.01939182
  27        -0.01017442
  28         0.00346590
  29        -0.00704943
  30         0.06839931
  31        -0.01711475
  32        -0.01033634
  33         0.00730871
  34        -0.00197806
Sym=     6a  
Ene=     0.1905
Spin= Alpha
Occup=    0.00000
   1         0.09692230
   2        -0.15725274
   3        -2.21056143
   4        -0.00000147
   5        -0.00000050
   6         0.00000037
   7        -0.00000356
   8        -0.00000029
   9         0.00000022
  10        -0.00000002
  11         0.00000023
  12         0.00000024
  13         0.00000013
  14        -0.00000028
  15         0.02347402
  16         0.82442684
  17        -0.01315235
  18         0.00000004
  19        -0.00000003
  20         0.02347410
  21         0.82442559
  22         0.00438411
  23        -0.00960735
  24         0.00783983
  25         0.02347357
  26         0.82442510
  27         0.00438413
  28        -0.00198588
  29        -0.01224009
  30         0.02347354
  31         0.82442507
  32         0.00438413
  33         0.01159313
  34         0.00440035
Sym=     7a  
Ene=     0.2710
Spin= Alpha
Occup=    0.00000
   1         0.00000004
   2        -0.00000086
   3        -0.00000532
   4         0.41443013
   5        -0.13861535
   6         0.11075634
   7         1.08686737
   8        -0.36352715
   9         0.29046524
  10        -0.00901607
  11        -0.00314478
  12         0.00699453
  13         0.01833033
  14         0.00393580
  15        -0.08765018
  16        -1.97769358
  17         0.02749943
  18        -0.00017334
  19         0.00013850
  20         0.06459469
  21         1.45746842
  22         0.00714614
  23        -0.01469784
  24         0.01199085
  25         0.01184361
  26         0.26723108
  27         0.00173384
  28        -0.00072395
  29        -0.00325428
  30         0.01121284
  31         0.25299928
  32         0.00166912
  33         0.00286894
  34         0.00129341
Sym=     8a  
Ene=     0.2710
Spin= Alpha
Occup=    0.00000
   1         0.00000017
   2         0.00000003
   3        -0.00000823
   4         0.17698255
   5         0.30299294
   6        -0.28302926
   7         0.46415156
   8         0.79462515
   9        -0.74226817
  10        -0.00818227
  11         0.00803695
  12        -0.01605245
  13         0.00532717
  14        -0.00860387
  15        -0.03742807
  16        -0.84457145
  17         0.01174361
  18         0.00037877
  19        -0.00035384
  20        -0.07000909
  21        -1.57976045
  22        -0.00696260
  23         0.01612213
  24        -0.01320083
  25         0.05850519
  26         1.32018364
  27         0.00622495
  28        -0.00234048
  29        -0.01711575
  30         0.04893129
  31         1.10415768
  32         0.00524255
  33         0.01365696
  34         0.00468584
Sym=     9a  
Ene=     0.2710
Spin= Alpha
Occup=    0.00000
   1         0.00000002
   2         0.00000002
   3        -0.00000081
   4         0.01258572
   5         0.30366766
   6         0.33295709
   7         0.03300710
   8         0.79639086
   9         0.87320403
  10         0.01484820
  11        -0.00945451
  12        -0.00459827
  13         0.00928738
  14        -0.00862284
  15        -0.00266163
  16        -0.06005986
  17         0.00083512
  18         0.00037984
  19         0.00041650
  20        -0.00405101
  21        -0.09141109
  22        -0.00039995
  23         0.00129091
  24        -0.00032675
  25        -0.07434324
  26        -1.67748057
  27        -0.00761277
  28         0.00383508
  29         0.02171452
  30         0.08105579
  31         1.82895245
  32         0.00833308
  33         0.02237371
  34         0.00876433
Sym=    10a  
Ene=     0.5906
Spin= Alpha
Occup=    0.00000
   1         0.00000057
   2         0.00000169
   3        -0.00000393
   4        -0.35718082
   5         0.26758902
   6         0.01488906
   7         1.09386105
   8        -0.81949122
   9        -0.04559942
  10         0.08016751
  11        -0.00250000
  12        -0.05463469
  13        -0.07363781
  14        -0.04491995
  15        -1.13974522
  16         0.68047278
  17        -0.01081884
  18        -0.02064682
  19        -0.00114919
  20         0.97531076
  21        -0.58229670
  22         0.01661230
  23         0.00334273
  24        -0.02072550
  25         0.55305379
  26        -0.33019126
  27         0.02135228
  28        -0.01783535
  29         0.01618295
  30        -0.38861204
  31         0.23201034
  32         0.03192184
  33        -0.00911276
  34         0.00322955
Sym=    11a  
Ene=     0.5906
Spin= Alpha
Occup=    0.00000
   1         0.00000027
   2         0.00000082
   3        -0.00000201
   4        -0.15896082
   5        -0.19155568
   6        -0.37073186
   7         0.48681536
   8         0.58664159
   9         1.13536827
  10        -0.06268452
  11         0.06223515
  12        -0.00055452
  13        -0.08956160
  14         0.03215707
  15        -0.50723562
  16         0.30283948
  17        -0.00481485
  18         0.01478068
  19         0.02860563
  20         0.42773663
  21        -0.25537460
  22         0.00746411
  23         0.02530196
  24         0.02002055
  25        -1.02413948
  26         0.61143967
  27         0.02376064
  28         0.00957303
  29        -0.00348875
  30         1.10364148
  31        -0.65890626
  32        -0.00012229
  33        -0.01797747
  34         0.01617183
Sym=    12a  
Ene=     0.5906
Spin= Alpha
Occup=    0.00000
   1         0.00000061
   2         0.00000231
   3        -0.00000741
   4        -0.21577052
   5        -0.30183874
   6         0.24847608
   7         0.66080820
   8         0.92439910
   9        -0.76097266
  10         0.04782787
  11        -0.04171217
  12         0.09084971
  13        -0.04482958
  14         0.05067025
  15        -0.68850868
  16         0.41105038
  17        -0.00653499
  18         0.02329042
  19        -0.01917287
  20        -0.94666224
  21         0.56516686
  22         0.02727488
  23         0.00000522
  24        -0.00017158
  25         0.82196235
  26        -0.49071905
  27         0.00742285
  28         0.02746953
  29         0.00658564
  30         0.81320848
  31        -0.48549264
  32         0.00752111
  33        -0.00084677
  34        -0.02833442
Sym=    13a  
Ene=     0.8798
Spin= Alpha
Occup=    0.00000
   1        -0.00000327
   2        -0.00001842
   3         0.00002336
   4        -1.19294946
   5         0.36060995
   6        -0.28592823
   7         2.15962730
   8        -0.65282086
   9         0.51762276
  10        -0.13684160
  11        -0.04216767
  12         0.09429791
  13         0.27287409
  14         0.05318151
  15         0.56702076
  16        -1.93931656
  17         0.27551306
  18         0.02046055
  19        -0.01622320
  20        -0.39520040
  21         1.35169984
  22         0.01204799
  23        -0.15427400
  24         0.12636447
  25        -0.08839755
  26         0.30236258
  27        -0.04984974
  28         0.01238120
  29        -0.06602050
  30        -0.08338329
  31         0.28521264
  32        -0.05086144
  33         0.06495053
  34         0.00066370
Sym=    14a  
Ene=     0.8798
Spin= Alpha
Occup=    0.00000
   1         0.00000001
   2         0.00000002
   3        -0.00000005
   4         0.01257955
   5        -0.76856692
   6        -1.02179364
   7        -0.02277323
   8         1.39135915
   9         1.84978328
  10         0.22951825
  11        -0.15069799
  12        -0.04311309
  13         0.12880201
  14        -0.11335126
  15        -0.00597903
  16         0.02044961
  17        -0.00290522
  18        -0.04360736
  19        -0.05797511
  20        -0.02065842
  21         0.07065657
  22         0.00488167
  23        -0.05274096
  24        -0.05052138
  25         0.50912329
  26        -1.74132321
  27        -0.10200711
  28         0.00291932
  29         0.22881180
  30        -0.48248582
  31         1.65021705
  32         0.09806028
  33         0.21380986
  34         0.03972871
Sym=    15a  
Ene=     0.8798
Spin= Alpha
Occup=    0.00000
   1        -0.00000565
   2        -0.00003435
   3         0.00004016
   4        -0.46003790
   5        -0.95612791
   6         0.71351122
   7         0.83282352
   8         1.73091160
   9        -1.29169449
  10        -0.09278816
  11         0.10523054
  12        -0.24570890
  13         0.08212195
  14        -0.14101242
  15         0.21867694
  16        -0.74787307
  17         0.10624891
  18        -0.05424990
  19         0.04048407
  20         0.46124691
  21        -1.57752029
  22        -0.11915770
  23         0.14967751
  24        -0.12592570
  25        -0.31986097
  26         1.09404968
  27         0.03843581
  28        -0.08348252
  29        -0.13970142
  30        -0.35997879
  31         1.23126235
  32         0.04653001
  33         0.13781568
  34         0.11338381
Sym=    16a  
Ene=     0.9105
Spin= Alpha
Occup=    0.00000
   1         0.26132033
   2         1.61493295
   3        -2.10863993
   4        -0.00002204
   5        -0.00001589
   6         0.00001169
   7         0.00004356
   8         0.00002797
   9        -0.00002058
  10        -0.00000353
  11         0.00000573
  12        -0.00000050
  13         0.00000633
  14        -0.00000736
  15        -0.94541608
  16         0.96414000
  17        -0.17488699
  18        -0.00000232
  19         0.00000179
  20        -0.94541496
  21         0.96415765
  22         0.05829259
  23        -0.12775235
  24         0.10424898
  25        -0.94542924
  26         0.96420215
  27         0.05829939
  28        -0.02640643
  29        -0.16276636
  30        -0.94543009
  31         0.96420480
  32         0.05829959
  33         0.15416377
  34         0.05851363
Sym=    17a  
Ene=     1.1290
Spin= Alpha
Occup=    0.00000
   1        -0.00002680
   2        -0.00011525
   3         0.00020846
   4        -0.00000095
   5        -0.00000032
   6         0.00000030
   7         0.00000127
   8         0.00000096
   9        -0.00000084
  10         0.05495695
  11         0.27928882
  12         0.30446142
  13         0.03172654
  14        -0.33977976
  15        -0.00001599
  16        -0.00001594
  17         0.00000442
  18        -0.20659094
  19         0.16981158
  20        -0.00001627
  21        -0.00001525
  22        -0.25213053
  23        -0.06966067
  24         0.05561648
  25        -0.00001565
  26        -0.00001488
  27         0.12684031
  28         0.23531653
  29         0.00725894
  30        -0.00001566
  31        -0.00001492
  32         0.12528622
  33         0.04093388
  34        -0.23268602
Sym=    18a  
Ene=     1.1290
Spin= Alpha
Occup=    0.00000
   1         0.00000029
   2         0.00000123
   3        -0.00000223
   4         0.00000005
   5        -0.00000060
   6        -0.00000069
   7        -0.00000007
   8         0.00000036
   9         0.00000038
  10         0.26367516
  11         0.33978020
  12        -0.06345828
  13         0.15223294
  14         0.27928920
  15         0.00000017
  16         0.00000020
  17        -0.00000005
  18         0.16981146
  19         0.20659077
  20         0.00000017
  21         0.00000013
  22         0.00089725
  23        -0.16882687
  24        -0.20739111
  25         0.00000041
  26        -0.00000043
  27         0.21789990
  28        -0.12046077
  29         0.09758955
  30        -0.00000008
  31         0.00000076
  32        -0.21879712
  33         0.11947755
  34        -0.09678755
Sym=    19a  
Ene=     1.2535
Spin= Alpha
Occup=    0.00000
   1         0.91304210
   2         3.74131506
   3        -7.03233699
   4         0.00000275
   5         0.00000113
   6        -0.00000083
   7        -0.00000710
   8         0.00000105
   9        -0.00000077
  10         0.00000118
  11         0.00000823
  12         0.00000942
  13         0.00000165
  14        -0.00001023
  15         0.97992792
  16         0.20517220
  17        -0.06331158
  18        -0.00000652
  19         0.00000526
  20         0.97992334
  21         0.20517498
  22         0.02109461
  23        -0.04624970
  24         0.03774099
  25         0.97992451
  26         0.20517752
  27         0.02110727
  28        -0.00955103
  29        -0.05892061
  30         0.97992458
  31         0.20517767
  32         0.02110736
  33         0.05580791
  34         0.02117387
Sym=    20a  
Ene=     1.6706
Spin= Alpha
Occup=    0.00000
   1         0.00000000
   2         0.00000000
   3        -0.00000000
   4        -0.00000004
   5        -0.00000086
   6        -0.00000118
   7         0.00000018
   8         0.00000650
   9         0.00000871
  10         0.00000447
  11        -0.00000302
  12        -0.00000085
  13         0.00000268
  14        -0.00000227
  15        -0.00000020
  16         0.00000005
  17        -0.00000004
  18         0.26137092
  19         0.33086990
  20         0.00000060
  21        -0.00000018
  22         0.00630183
  23        -0.37130599
  24        -0.45854234
  25        -0.00001175
  26         0.00000410
  27        -0.34738547
  28         0.35655733
  29        -0.18227508
  30         0.00001135
  31        -0.00000397
  32         0.34108352
  33        -0.24662845
  34         0.30993924
Sym=    21a  
Ene=     1.6706
Spin= Alpha
Occup=    0.00000
   1         0.00000000
   2         0.00000000
   3        -0.00000000
   4         0.00000172
   5        -0.00000141
   6         0.00000120
   7        -0.00001414
   8         0.00001336
   9        -0.00001113
  10         0.00000282
  11         0.00000410
  12        -0.00000896
  13        -0.00000869
  14        -0.00000495
  15         0.00001919
  16        -0.00000701
  17         0.00000515
  18         0.49888498
  19        -0.39520941
  20        -0.00002916
  21         0.00001088
  22        -0.59999469
  23        -0.16675832
  24         0.13117284
  25         0.00000514
  26        -0.00000197
  27         0.29247800
  28        -0.16558061
  29         0.13162354
  30         0.00000483
  31        -0.00000189
  32         0.30752490
  33        -0.16655892
  34         0.13242374
Sym=    22a  
Ene=     1.6706
Spin= Alpha
Occup=    0.00000
   1         0.00000000
   2         0.00000000
   3        -0.00000000
   4         0.00000004
   5        -0.00000249
   6        -0.00000308
   7        -0.00000018
   8         0.00001253
   9         0.00001529
  10         0.00000709
  11        -0.00000455
  12        -0.00000172
  13         0.00000400
  14        -0.00000376
  15         0.00000019
  16        -0.00000005
  17         0.00000004
  18        -0.29644479
  19        -0.37338541
  20        -0.00000017
  21         0.00000008
  22        -0.00602397
  23        -0.15252747
  24        -0.18354662
  25        -0.00001826
  26         0.00000520
  27         0.39224229
  28         0.49121782
  29         0.06079488
  30         0.00001825
  31        -0.00000523
  32        -0.38621819
  33        -0.04225692
  34         0.49612330
Sym=    23a  
Ene=     1.8740
Spin= Alpha
Occup=    0.00000
   1         0.00000076
   2         0.00000270
   3        -0.00000742
   4         0.06172069
   5        -0.08174415
   6         0.06840545
   7        -0.52129302
   8         0.69042059
   9        -0.57776037
  10         0.07915078
  11         0.21073072
  12        -0.45375924
  13        -0.33459142
  14        -0.25182199
  15         0.66591800
  16        -0.27706745
  17         0.19613865
  18        -0.23385394
  19         0.19569433
  20        -1.30612303
  21         0.54342231
  22         0.18937457
  23        -0.26188088
  24         0.21856467
  25         0.33170976
  26        -0.13800501
  27         0.17330747
  28        -0.23236844
  29         0.20475298
  30         0.30850108
  31        -0.12834893
  32         0.17353484
  33        -0.24182956
  34         0.19265089
Sym=    24a  
Ene=     1.8740
Spin= Alpha
Occup=    0.00000
   1        -0.00000039
   2         0.00000027
   3         0.00000329
   4         0.10558349
   5         0.03604211
   6        -0.05219832
   7        -0.89174989
   8        -0.30441024
   9         0.44087209
  10         0.39304488
  11        -0.16080462
  12         0.24461174
  13        -0.42359455
  14         0.11103034
  15         1.13912262
  16        -0.47394206
  17         0.33551415
  18         0.10309857
  19        -0.14931825
  20         0.24002228
  21        -0.09985400
  22         0.29968520
  23         0.10825117
  24        -0.15352203
  25        -0.84510544
  26         0.35160823
  27         0.31031145
  28         0.09934875
  29        -0.17243550
  30        -0.53404531
  31         0.22218932
  32         0.30726445
  33         0.11693600
  34        -0.14407160
Sym=    25a  
Ene=     1.8740
Spin= Alpha
Occup=    0.00000
   1        -0.00000011
   2        -0.00000010
   3         0.00000097
   4         0.01462620
   5         0.08479166
   6         0.08812829
   7        -0.12353179
   8        -0.71617319
   9        -0.74435836
  10        -0.40398265
  11         0.27150193
  12         0.14908483
  13        -0.32335403
  14         0.26122087
  15         0.15779935
  16        -0.06565373
  17         0.04647781
  18         0.24256399
  19         0.25211097
  20         0.04888127
  21        -0.02033618
  22         0.04136132
  23         0.24361068
  24         0.25125165
  25         0.97042943
  26        -0.40375495
  27         0.03233426
  28         0.24688613
  29         0.27865625
  30        -1.17711136
  31         0.48974506
  32         0.05337004
  33         0.27305782
  34         0.26370080
Sym=    26a  
Ene=     2.1926
Spin= Alpha
Occup=    0.00000
   1         0.00000185
   2         0.00000635
   3        -0.00001159
   4        -0.31055970
   5        -0.16479836
   6         0.13153572
   7        -0.42771401
   8        -0.22697199
   9         0.18116038
  10        -0.38670404
  11         0.15995997
  12        -0.35602250
  13         0.53203258
  14        -0.20041048
  15        -0.24350008
  16         0.58438417
  17        -0.15228664
  18         0.31071814
  19        -0.24800326
  20        -0.07469543
  21         0.17926969
  22         0.66097451
  23         0.14538157
  24        -0.11308467
  25         0.15764519
  26        -0.37832512
  27         0.42630884
  28         0.38283184
  29         0.19652106
  30         0.16056576
  31        -0.38533387
  32         0.42335931
  33        -0.11811144
  34        -0.41076402
Sym=    27a  
Ene=     2.1926
Spin= Alpha
Occup=    0.00000
   1         0.00000178
   2         0.00000696
   3        -0.00001122
   4        -0.21078218
   5         0.23605708
   6        -0.20189515
   7        -0.29028769
   8         0.32510438
   9        -0.27805560
  10        -0.11874226
  11        -0.24550747
  12         0.52070391
  13         0.44406475
  14         0.28704860
  15        -0.16526221
  16         0.39662594
  17        -0.10336132
  18        -0.44505338
  19         0.38064592
  20         0.28464745
  21        -0.68313085
  22         0.10990124
  23         0.18495691
  24        -0.13345807
  25        -0.06428294
  26         0.15428158
  27         0.46232955
  28        -0.47446598
  29         0.19936999
  30        -0.05509015
  31         0.13221958
  32         0.45304469
  33        -0.29791151
  34         0.43649759
Sym=    28a  
Ene=     2.1926
Spin= Alpha
Occup=    0.00000
   1        -0.00000007
   2        -0.00000028
   3         0.00000042
   4         0.00591973
   5        -0.24089269
   6        -0.28783333
   7         0.00815261
   8        -0.33176221
   9        -0.39640980
  10         0.55243073
  11        -0.35001464
  12        -0.13729077
  13         0.30454940
  14        -0.29293310
  15         0.00464123
  16        -0.01113898
  17         0.00290282
  18         0.45417284
  19         0.54267367
  20        -0.00499150
  21         0.01197899
  22        -0.00611941
  23         0.44312438
  24         0.55168733
  25        -0.24009619
  26         0.57621013
  27         0.23133736
  28         0.34433010
  29        -0.13435465
  30         0.24044607
  31        -0.57705003
  32        -0.25401229
  33        -0.18800484
  34         0.29892624
Sym=    29a  
Ene=     2.5116
Spin= Alpha
Occup=    0.00000
   1        -0.00000012
   2        -0.00000054
   3         0.00000028
   4         0.00000001
   5        -0.00000940
   6        -0.00001143
   7        -0.00000005
   8        -0.00000021
   9        -0.00000030
  10         0.62933582
  11         0.81098243
  12        -0.15146152
  13         0.36334739
  14         0.66660400
  15        -0.00000004
  16         0.00000005
  17        -0.00000005
  18        -0.39803179
  19        -0.48424070
  20         0.00000011
  21         0.00000001
  22        -0.00210327
  23         0.39573018
  24         0.48612536
  25         0.00000690
  26         0.00000335
  27        -0.51075185
  28         0.28236042
  29        -0.22875788
  30        -0.00000686
  31        -0.00000333
  32         0.51285546
  33        -0.28006289
  34         0.22686853
Sym=    30a  
Ene=     2.5116
Spin= Alpha
Occup=    0.00000
   1         0.00001087
   2         0.00005082
   3        -0.00002652
   4        -0.00000027
   5         0.00001114
   6        -0.00000915
   7         0.00000089
   8         0.00000123
   9        -0.00000105
  10         0.13117391
  11         0.66660921
  12         0.72669478
  13         0.07572364
  14        -0.81098897
  15        -0.00000138
  16        -0.00000226
  17         0.00001030
  18         0.48424064
  19        -0.39803164
  20        -0.00000932
  21        -0.00000611
  22         0.59097808
  23         0.16330594
  24        -0.13038209
  25         0.00000008
  26         0.00000082
  27        -0.29731848
  28        -0.55158181
  29        -0.01699802
  30         0.00000011
  31         0.00000076
  32        -0.29367538
  33        -0.09596584
  34         0.54541285
Sym=    31a  
Ene=     2.6934
Spin= Alpha
Occup=    0.00000
   1        -0.53192277
   2        -2.76489626
   3        -0.02899752
   4        -0.00009905
   5        -0.00003474
   6         0.00002556
   7        -0.00000448
   8        -0.00000208
   9         0.00000153
  10         0.00003984
  11         0.00000372
  12         0.00004554
  13        -0.00005353
  14        -0.00000324
  15         1.00124544
  16        -0.20567823
  17        -0.79229211
  18         0.00000778
  19        -0.00000631
  20         1.00113892
  21        -0.20565787
  22         0.26407996
  23        -0.57869647
  24         0.47223037
  25         1.00105849
  26        -0.20564092
  27         0.26405716
  28        -0.11961722
  29        -0.73723994
  30         1.00105369
  31        -0.20563991
  32         0.26405618
  33         0.69826881
  34         0.26504317
Sym=    32a  
Ene=     2.7534
Spin= Alpha
Occup=    0.00000
   1        -0.00003534
   2        -0.00017531
   3         0.00001080
   4         1.91461186
   5         0.38499868
   6        -0.33745431
   7         0.01616613
   8         0.00325316
   9        -0.00285117
  10        -0.73478888
  11         0.13734007