[Molden Format]
[N_Atoms]
                   10
[Atoms] (AU)
C1          1      6           2.24059237     -1.40668514      0.00000000
C1          2      6          -2.24059237     -1.40668514      0.00000000
C1          3      6           2.24059237      1.40668514      0.00000000
C1          4      6          -2.24059237      1.40668514      0.00000000
C2          5      6           0.00000000     -2.53575672      0.00000000
C2          6      6           0.00000000      2.53575672      0.00000000
H3          7      1           4.08990946      2.23412236      0.00000000
H3          8      1          -4.08990946      2.23412236      0.00000000
H3          9      1           4.08990946     -2.23412236      0.00000000
H3         10      1          -4.08990946     -2.23412236      0.00000000
[Charge] (Mulliken)
   0.0000000000000000     
   0.0000000000000000     
   0.0000000000000000     
   0.0000000000000000     
   0.0000000000000000     
   0.0000000000000000     
   0.0000000000000000     
   0.0000000000000000     
   0.0000000000000000     
   0.0000000000000000     
[GTO] (AU)
   1
   s   6
  3.047524880E+03  1.834737132E-03
  4.573695180E+02  1.403732281E-02
  1.039486850E+02  6.884262227E-02
  2.921015530E+01  2.321844432E-01
  9.286662960E+00  4.679413484E-01
  3.163926960E+00  3.623119853E-01
   s   3
  7.868272350E+00 -1.193324198E-01
  1.881288540E+00 -1.608541517E-01
  5.442492580E-01  1.143456438E+00
   s   1
  1.687144782E-01  1.000000000E+00
   p   3
  7.868272350E+00  6.899906659E-02
  1.881288540E+00  3.164239610E-01
  5.442492580E-01  7.443082909E-01
   p   1
  1.687144782E-01  1.000000000E+00
   d   1
  8.000000000E-01  1.000000000E+00
 
   2
   s   6
  3.047524880E+03  1.834737132E-03
  4.573695180E+02  1.403732281E-02
  1.039486850E+02  6.884262227E-02
  2.921015530E+01  2.321844432E-01
  9.286662960E+00  4.679413484E-01
  3.163926960E+00  3.623119853E-01
   s   3
  7.868272350E+00 -1.193324198E-01
  1.881288540E+00 -1.608541517E-01
  5.442492580E-01  1.143456438E+00
   s   1
  1.687144782E-01  1.000000000E+00
   p   3
  7.868272350E+00  6.899906659E-02
  1.881288540E+00  3.164239610E-01
  5.442492580E-01  7.443082909E-01
   p   1
  1.687144782E-01  1.000000000E+00
   d   1
  8.000000000E-01  1.000000000E+00
 
   3
   s   6
  3.047524880E+03  1.834737132E-03
  4.573695180E+02  1.403732281E-02
  1.039486850E+02  6.884262227E-02
  2.921015530E+01  2.321844432E-01
  9.286662960E+00  4.679413484E-01
  3.163926960E+00  3.623119853E-01
   s   3
  7.868272350E+00 -1.193324198E-01
  1.881288540E+00 -1.608541517E-01
  5.442492580E-01  1.143456438E+00
   s   1
  1.687144782E-01  1.000000000E+00
   p   3
  7.868272350E+00  6.899906659E-02
  1.881288540E+00  3.164239610E-01
  5.442492580E-01  7.443082909E-01
   p   1
  1.687144782E-01  1.000000000E+00
   d   1
  8.000000000E-01  1.000000000E+00
 
   4
   s   6
  3.047524880E+03  1.834737132E-03
  4.573695180E+02  1.403732281E-02
  1.039486850E+02  6.884262227E-02
  2.921015530E+01  2.321844432E-01
  9.286662960E+00  4.679413484E-01
  3.163926960E+00  3.623119853E-01
   s   3
  7.868272350E+00 -1.193324198E-01
  1.881288540E+00 -1.608541517E-01
  5.442492580E-01  1.143456438E+00
   s   1
  1.687144782E-01  1.000000000E+00
   p   3
  7.868272350E+00  6.899906659E-02
  1.881288540E+00  3.164239610E-01
  5.442492580E-01  7.443082909E-01
   p   1
  1.687144782E-01  1.000000000E+00
   d   1
  8.000000000E-01  1.000000000E+00
 
   5
   s   6
  3.047524880E+03  1.834737132E-03
  4.573695180E+02  1.403732281E-02
  1.039486850E+02  6.884262227E-02
  2.921015530E+01  2.321844432E-01
  9.286662960E+00  4.679413484E-01
  3.163926960E+00  3.623119853E-01
   s   3
  7.868272350E+00 -1.193324198E-01
  1.881288540E+00 -1.608541517E-01
  5.442492580E-01  1.143456438E+00
   s   1
  1.687144782E-01  1.000000000E+00
   p   3
  7.868272350E+00  6.899906659E-02
  1.881288540E+00  3.164239610E-01
  5.442492580E-01  7.443082909E-01
   p   1
  1.687144782E-01  1.000000000E+00
   d   1
  8.000000000E-01  1.000000000E+00
 
   6
   s   6
  3.047524880E+03  1.834737132E-03
  4.573695180E+02  1.403732281E-02
  1.039486850E+02  6.884262227E-02
  2.921015530E+01  2.321844432E-01
  9.286662960E+00  4.679413484E-01
  3.163926960E+00  3.623119853E-01
   s   3
  7.868272350E+00 -1.193324198E-01
  1.881288540E+00 -1.608541517E-01
  5.442492580E-01  1.143456438E+00
   s   1
  1.687144782E-01  1.000000000E+00
   p   3
  7.868272350E+00  6.899906659E-02
  1.881288540E+00  3.164239610E-01
  5.442492580E-01  7.443082909E-01
   p   1
  1.687144782E-01  1.000000000E+00
   d   1
  8.000000000E-01  1.000000000E+00
 
   7
   s   3
  1.873113696E+01  3.349460434E-02
  2.825394365E+00  2.347269535E-01
  6.401216923E-01  8.137573261E-01
   s   1
  1.612777588E-01  1.000000000E+00
 
   8
   s   3
  1.873113696E+01  3.349460434E-02
  2.825394365E+00  2.347269535E-01
  6.401216923E-01  8.137573261E-01
   s   1
  1.612777588E-01  1.000000000E+00
 
   9
   s   3
  1.873113696E+01  3.349460434E-02
  2.825394365E+00  2.347269535E-01
  6.401216923E-01  8.137573261E-01
   s   1
  1.612777588E-01  1.000000000E+00
 
  10
   s   3
  1.873113696E+01  3.349460434E-02
  2.825394365E+00  2.347269535E-01
  6.401216923E-01  8.137573261E-01
   s   1
  1.612777588E-01  1.000000000E+00
 
[MO]
Sym=     1ag 
Ene=   -11.3590
Spin= Alpha
Occup=    2.00000
   1         0.38248863
   2         0.00862837
   3         0.00141920
   4        -0.00136997
   5         0.00042043
   6         0.00000000
   7        -0.00085554
   8         0.00026256
   9         0.00000000
  10         0.00000000
  11         0.00000000
  12         0.00000000
  13        -0.00000000
  14         0.00000000
  15         0.00000000
  16         0.38248863
  17         0.00862837
  18         0.00141920
  19         0.00136997
  20         0.00042043
  21         0.00000000
  22         0.00085554
  23         0.00026256
  24         0.00000000
  25         0.00000000
  26         0.00000000
  27         0.00000000
  28         0.00000000
  29         0.00000000
  30         0.00000000
  31         0.38248863
  32         0.00862837
  33         0.00141920
  34        -0.00136997
  35        -0.00042043
  36         0.00000000
  37        -0.00085554
  38        -0.00026256
  39         0.00000000
  40         0.00000000
  41         0.00000000
  42         0.00000000
  43         0.00000000
  44         0.00000000
  45         0.00000000
  46         0.38248863
  47         0.00862837
  48         0.00141920
  49         0.00136997
  50        -0.00042043
  51         0.00000000
  52         0.00085554
  53        -0.00026256
  54         0.00000000
  55         0.00000000
  56         0.00000000
  57         0.00000000
  58        -0.00000000
  59         0.00000000
  60         0.00000000
  61         0.44640026
  62         0.00988555
  63         0.00145083
  64         0.00000000
  65         0.00131099
  66         0.00000000
  67         0.00000000
  68         0.00081872
  69         0.00000000
  70         0.00000000
  71        -0.00000000
  72        -0.00000000
  73         0.00000000
  74         0.00000000
  75         0.00000000
  76         0.44640026
  77         0.00988555
  78         0.00145083
  79         0.00000000
  80        -0.00131099
  81         0.00000000
  82         0.00000000
  83        -0.00081872
  84         0.00000000
  85         0.00000000
  86        -0.00000000
  87        -0.00000000
  88         0.00000000
  89         0.00000000
  90         0.00000000
  91         0.00095387
  92         0.00106505
  93         0.00095387
  94         0.00106505
  95         0.00095387
  96         0.00106505
  97         0.00095387
  98         0.00106505
Sym=     2ag 
Ene=   -11.3290
Spin= Alpha
Occup=    2.00000
   1        -0.31698384
   2        -0.00527364
   3         0.00091368
   4        -0.00123335
   5        -0.00114282
   6         0.00000000
   7        -0.00077023
   8        -0.00071369
   9         0.00000000
  10        -0.00000000
  11        -0.00000000
  12         0.00000000
  13        -0.00000000
  14         0.00000000
  15         0.00000000
  16        -0.31698384
  17        -0.00527364
  18         0.00091368
  19         0.00123335
  20        -0.00114282
  21         0.00000000
  22         0.00077023
  23        -0.00071369
  24         0.00000000
  25        -0.00000000
  26        -0.00000000
  27         0.00000000
  28         0.00000000
  29         0.00000000
  30         0.00000000
  31        -0.31698384
  32        -0.00527364
  33         0.00091368
  34        -0.00123335
  35         0.00114282
  36         0.00000000
  37        -0.00077023
  38         0.00071369
  39         0.00000000
  40        -0.00000000
  41        -0.00000000
  42         0.00000000
  43         0.00000000
  44         0.00000000
  45         0.00000000
  46        -0.31698384
  47        -0.00527364
  48         0.00091368
  49         0.00123335
  50         0.00114282
  51         0.00000000
  52         0.00077023
  53         0.00071369
  54         0.00000000
  55        -0.00000000
  56        -0.00000000
  57         0.00000000
  58        -0.00000000
  59         0.00000000
  60         0.00000000
  61         0.54348317
  62         0.00881346
  63        -0.00182086
  64         0.00000000
  65        -0.00083317
  66         0.00000000
  67         0.00000000
  68        -0.00052032
  69         0.00000000
  70         0.00000000
  71         0.00000000
  72         0.00000000
  73         0.00000000
  74         0.00000000
  75         0.00000000
  76         0.54348317
  77         0.00881346
  78        -0.00182086
  79         0.00000000
  80         0.00083317
  81         0.00000000
  82         0.00000000
  83         0.00052032
  84         0.00000000
  85         0.00000000
  86         0.00000000
  87         0.00000000
  88         0.00000000
  89         0.00000000
  90         0.00000000
  91        -0.00057539
  92        -0.00064245
  93        -0.00057539
  94        -0.00064245
  95        -0.00057539
  96        -0.00064245
  97        -0.00057539
  98        -0.00064245
Sym=     3ag 
Ene=    -1.7354
Spin= Alpha
Occup=    2.00000
   1        -0.09816746
   2         0.11662492
   3         0.13194671
   4        -0.04249529
   5         0.03033357
   6         0.00000000
   7        -0.02653829
   8         0.01894330
   9         0.00000000
  10        -0.00000000
  11         0.00000000
  12         0.00000000
  13        -0.00000000
  14         0.00000000
  15         0.00000000
  16        -0.09816746
  17         0.11662492
  18         0.13194671
  19         0.04249529
  20         0.03033357
  21         0.00000000
  22         0.02653829
  23         0.01894330
  24         0.00000000
  25        -0.00000000
  26         0.00000000
  27         0.00000000
  28         0.00000000
  29         0.00000000
  30         0.00000000
  31        -0.09816746
  32         0.11662492
  33         0.13194671
  34        -0.04249529
  35        -0.03033357
  36         0.00000000
  37        -0.02653829
  38        -0.01894330
  39         0.00000000
  40        -0.00000000
  41         0.00000000
  42         0.00000000
  43         0.00000000
  44         0.00000000
  45         0.00000000
  46        -0.09816746
  47         0.11662492
  48         0.13194671
  49         0.04249529
  50        -0.03033357
  51         0.00000000
  52         0.02653829
  53        -0.01894330
  54         0.00000000
  55        -0.00000000
  56         0.00000000
  57         0.00000000
  58        -0.00000000
  59         0.00000000
  60         0.00000000
  61        -0.09587668
  62         0.11375395
  63         0.12870125
  64         0.00000000
  65         0.05960119
  66         0.00000000
  67         0.00000000
  68         0.03722091
  69         0.00000000
  70        -0.00000000
  71        -0.00000000
  72        -0.00000000
  73         0.00000000
  74         0.00000000
  75         0.00000000
  76        -0.09587668
  77         0.11375395
  78         0.12870125
  79         0.00000000
  80        -0.05960119
  81         0.00000000
  82         0.00000000
  83        -0.03722091
  84         0.00000000
  85        -0.00000000
  86        -0.00000000
  87        -0.00000000
  88         0.00000000
  89         0.00000000
  90         0.00000000
  91         0.03534063
  92         0.03945964
  93         0.03534063
  94         0.03945964
  95         0.03534063
  96         0.03945964
  97         0.03534063
  98         0.03945964
Sym=     4ag 
Ene=    -0.9833
Spin= Alpha
Occup=    2.00000
   1        -0.03480141
   2         0.05818964
   3         0.06553089
   4         0.16392912
   5         0.01573192
   6         0.00000000
   7         0.10237365
   8         0.00982458
   9         0.00000000
  10        -0.00000000
  11        -0.00000000
  12        -0.00000000
  13         0.00000000
  14         0.00000000
  15         0.00000000
  16        -0.03480141
  17         0.05818964
  18         0.06553089
  19        -0.16392912
  20         0.01573192
  21         0.00000000
  22        -0.10237365
  23         0.00982458
  24         0.00000000
  25        -0.00000000
  26        -0.00000000
  27        -0.00000000
  28        -0.00000000
  29         0.00000000
  30         0.00000000
  31        -0.03480141
  32         0.05818964
  33         0.06553089
  34         0.16392912
  35        -0.01573192
  36         0.00000000
  37         0.10237365
  38        -0.00982458
  39         0.00000000
  40        -0.00000000
  41        -0.00000000
  42        -0.00000000
  43        -0.00000000
  44         0.00000000
  45         0.00000000
  46        -0.03480141
  47         0.05818964
  48         0.06553089
  49        -0.16392912
  50        -0.01573192
  51         0.00000000
  52        -0.10237365
  53        -0.00982458
  54         0.00000000
  55        -0.00000000
  56        -0.00000000
  57        -0.00000000
  58         0.00000000
  59         0.00000000
  60         0.00000000
  61         0.07063292
  62        -0.08552548
  63        -0.09673248
  64         0.00000000
  65        -0.04422396
  66         0.00000000
  67         0.00000000
  68        -0.02761784
  69         0.00000000
  70         0.00000000
  71         0.00000000
  72         0.00000000
  73         0.00000000
  74         0.00000000
  75         0.00000000
  76         0.07063292
  77        -0.08552548
  78        -0.09673248
  79         0.00000000
  80         0.04422396
  81         0.00000000
  82         0.00000000
  83         0.02761784
  84         0.00000000
  85         0.00000000
  86         0.00000000
  87         0.00000000
  88         0.00000000
  89         0.00000000
  90         0.00000000
  91         0.10302315
  92         0.11503068
  93         0.10302315
  94         0.11503068
  95         0.10302315
  96         0.11503068
  97         0.10302315
  98         0.11503068
Sym=     5ag 
Ene=    -0.7776
Spin= Alpha
Occup=    2.00000
   1        -0.01451436
   2         0.00926624
   3         0.01062734
   4        -0.00588871
   5         0.18839792
   6         0.00000000
   7        -0.00367749
   8         0.11765441
   9         0.00000000
  10        -0.00000000
  11        -0.00000000
  12        -0.00000000
  13        -0.00000000
  14         0.00000000
  15         0.00000000
  16        -0.01451436
  17         0.00926624
  18         0.01062734
  19         0.00588871
  20         0.18839792
  21         0.00000000
  22         0.00367749
  23         0.11765441
  24         0.00000000
  25        -0.00000000
  26        -0.00000000
  27        -0.00000000
  28         0.00000000
  29         0.00000000
  30         0.00000000
  31        -0.01451436
  32         0.00926624
  33         0.01062734
  34        -0.00588871
  35        -0.18839792
  36         0.00000000
  37        -0.00367749
  38        -0.11765441
  39         0.00000000
  40        -0.00000000
  41        -0.00000000
  42        -0.00000000
  43         0.00000000
  44         0.00000000
  45         0.00000000
  46        -0.01451436
  47         0.00926624
  48         0.01062734
  49         0.00588871
  50        -0.18839792
  51         0.00000000
  52         0.00367749
  53        -0.11765441
  54         0.00000000
  55        -0.00000000
  56        -0.00000000
  57        -0.00000000
  58        -0.00000000
  59         0.00000000
  60         0.00000000
  61         0.08656138
  62        -0.15401568
  63        -0.17332761
  64         0.00000000
  65         0.17146208
  66         0.00000000
  67         0.00000000
  68         0.10707798
  69         0.00000000
  70         0.00000000
  71         0.00000000
  72         0.00000000
  73         0.00000000
  74         0.00000000
  75         0.00000000
  76         0.08656138
  77        -0.15401568
  78        -0.17332761
  79         0.00000000
  80        -0.17146208
  81         0.00000000
  82         0.00000000
  83        -0.10707798
  84         0.00000000
  85         0.00000000
  86         0.00000000
  87         0.00000000
  88         0.00000000
  89         0.00000000
  90         0.00000000
  91        -0.04069379
  92        -0.04543672
  93        -0.04069379
  94        -0.04543672
  95        -0.04069379
  96        -0.04543672
  97        -0.04069379
  98        -0.04543672
Sym=     6ag 
Ene=    -0.3356
Spin= Alpha
Occup=    0.00000
   1         0.00543865
   2        -0.03116390
   3        -0.03481303
   4        -0.03572077
   5        -0.21413776
   6         0.00000000
   7        -0.02230760
   8        -0.13372892
   9         0.00000000
  10        -0.00000000
  11         0.00000000
  12        -0.00000000
  13         0.00000000
  14         0.00000000
  15         0.00000000
  16         0.00543865
  17        -0.03116390
  18        -0.03481303
  19         0.03572077
  20        -0.21413776
  21         0.00000000
  22         0.02230760
  23        -0.13372892
  24         0.00000000
  25        -0.00000000
  26         0.00000000
  27        -0.00000000
  28        -0.00000000
  29         0.00000000
  30         0.00000000
  31         0.00543865
  32        -0.03116390
  33        -0.03481303
  34        -0.03572077
  35         0.21413776
  36         0.00000000
  37        -0.02230760
  38         0.13372892
  39         0.00000000
  40        -0.00000000
  41         0.00000000
  42        -0.00000000
  43        -0.00000000
  44         0.00000000
  45         0.00000000
  46         0.00543865
  47        -0.03116390
  48        -0.03481303
  49         0.03572077
  50         0.21413776
  51         0.00000000
  52         0.02230760
  53         0.13372892
  54         0.00000000
  55        -0.00000000
  56         0.00000000
  57        -0.00000000
  58         0.00000000
  59         0.00000000
  60         0.00000000
  61         0.02650708
  62        -0.12322626
  63        -0.13776246
  64         0.00000000
  65         0.41161076
  66         0.00000000
  67         0.00000000
  68         0.25705071
  69         0.00000000
  70         0.00000000
  71         0.00000000
  72         0.00000000
  73         0.00000000
  74         0.00000000
  75         0.00000000
  76         0.02650708
  77        -0.12322626
  78        -0.13776246
  79         0.00000000
  80        -0.41161076
  81         0.00000000
  82         0.00000000
  83        -0.25705071
  84         0.00000000
  85         0.00000000
  86         0.00000000
  87         0.00000000
  88         0.00000000
  89         0.00000000
  90         0.00000000
  91         0.09038498
  92         0.10091951
  93         0.09038498
  94         0.10091951
  95         0.09038498
  96         0.10091951
  97         0.09038498
  98         0.10091951
Sym=     7ag 
Ene=    -0.1394
Spin= Alpha
Occup=    0.00000
   1         0.06838874
   2        -0.31279944
   3        -0.34972195
   4        -0.16778236
   5         0.21407953
   6         0.00000000
   7        -0.10478000
   8         0.13369255
   9         0.00000000
  10        -0.00000000
  11        -0.00000000
  12        -0.00000000
  13         0.00000000
  14         0.00000000
  15         0.00000000
  16         0.06838874
  17        -0.31279944
  18        -0.34972195
  19         0.16778236
  20         0.21407953
  21         0.00000000
  22         0.10478000
  23         0.13369255
  24         0.00000000
  25        -0.00000000
  26        -0.00000000
  27        -0.00000000
  28        -0.00000000
  29         0.00000000
  30         0.00000000
  31         0.06838874
  32        -0.31279944
  33        -0.34972195
  34        -0.16778236
  35        -0.21407953
  36         0.00000000
  37        -0.10478000
  38        -0.13369255
  39         0.00000000
  40        -0.00000000
  41        -0.00000000
  42        -0.00000000
  43        -0.00000000
  44         0.00000000
  45         0.00000000
  46         0.06838874
  47        -0.31279944
  48        -0.34972195
  49         0.16778236
  50        -0.21407953
  51         0.00000000
  52         0.10478000
  53        -0.13369255
  54         0.00000000
  55        -0.00000000
  56        -0.00000000
  57        -0.00000000
  58         0.00000000
  59         0.00000000
  60         0.00000000
  61        -0.04077989
  62         0.16848764
  63         0.18846014
  64         0.00000000
  65        -0.02717612
  66         0.00000000
  67         0.00000000
  68        -0.01697147
  69         0.00000000
  70         0.00000000
  71         0.00000000
  72         0.00000000
  73         0.00000000
  74         0.00000000
  75         0.00000000
  76        -0.04077989
  77         0.16848764
  78         0.18846014
  79         0.00000000
  80         0.02717612
  81         0.00000000
  82         0.00000000
  83         0.01697147
  84         0.00000000
  85         0.00000000
  86         0.00000000
  87         0.00000000
  88         0.00000000
  89         0.00000000
  90         0.00000000
  91         0.33144878
  92         0.37007972
  93         0.33144878
  94         0.37007972
  95         0.33144878
  96         0.37007972
  97         0.33144878
  98         0.37007972
Sym=     8ag 
Ene=    -0.0989
Spin= Alpha
Occup=    0.00000
   1         0.03558167
   2        -0.19956146
   3        -0.22294519
   4         0.42371494
   5         0.07143153
   6         0.00000000
   7         0.26460976
   8         0.04460895
   9         0.00000000
  10         0.00000000
  11         0.00000000
  12         0.00000000
  13        -0.00000000
  14         0.00000000
  15         0.00000000
  16         0.03558167
  17        -0.19956146
  18        -0.22294519
  19        -0.42371494
  20         0.07143153
  21         0.00000000
  22        -0.26460976
  23         0.04460895
  24         0.00000000
  25         0.00000000
  26         0.00000000
  27         0.00000000
  28         0.00000000
  29         0.00000000
  30         0.00000000
  31         0.03558167
  32        -0.19956146
  33        -0.22294519
  34         0.42371494
  35        -0.07143153
  36         0.00000000
  37         0.26460976
  38        -0.04460895
  39         0.00000000
  40         0.00000000
  41         0.00000000
  42         0.00000000
  43         0.00000000
  44         0.00000000
  45         0.00000000
  46         0.03558167
  47        -0.19956146
  48        -0.22294519
  49        -0.42371494
  50        -0.07143153
  51         0.00000000
  52        -0.26460976
  53        -0.04460895
  54         0.00000000
  55         0.00000000
  56         0.00000000
  57         0.00000000
  58        -0.00000000
  59         0.00000000
  60         0.00000000
  61        -0.09911756
  62         0.57748405
  63         0.64506871
  64         0.00000000
  65         0.39634705
  66         0.00000000
  67         0.00000000
  68         0.24751853
  69         0.00000000
  70        -0.00000000
  71         0.00000000
  72        -0.00000000
  73         0.00000000
  74         0.00000000
  75         0.00000000
  76        -0.09911756
  77         0.57748405
  78         0.64506871
  79         0.00000000
  80        -0.39634705
  81         0.00000000
  82         0.00000000
  83        -0.24751853
  84         0.00000000
  85        -0.00000000
  86         0.00000000
  87        -0.00000000
  88         0.00000000
  89         0.00000000
  90         0.00000000
  91        -0.12746484
  92        -0.14232109
  93        -0.12746484
  94        -0.14232109
  95        -0.12746484
  96        -0.14232109
  97        -0.12746484
  98        -0.14232109
Sym=     9ag 
Ene=     4.1864
Spin= Alpha
Occup=    0.00000
   1         0.00990406
   2         0.11725226
   3        -1.52352075
   4        -0.16429383
   5         0.00775737
   6         0.00000000
   7         1.95520058
   8         0.03182957
   9         0.00000000
  10        -0.13215067
  11         0.01333118
  12         0.01076157
  13        -0.11348230
  14         0.00000000
  15         0.00000000
  16         0.00990406
  17         0.11725226
  18        -1.52352075
  19         0.16429383
  20         0.00775737
  21         0.00000000
  22        -1.95520058
  23         0.03182957
  24         0.00000000
  25        -0.13215067
  26         0.01333118
  27         0.01076157
  28         0.11348230
  29         0.00000000
  30         0.00000000
  31         0.00990406
  32         0.11725226
  33        -1.52352075
  34        -0.16429383
  35        -0.00775737
  36         0.00000000
  37         1.95520058
  38        -0.03182957
  39         0.00000000
  40        -0.13215067
  41         0.01333118
  42         0.01076157
  43         0.11348230
  44         0.00000000
  45         0.00000000
  46         0.00990406
  47         0.11725226
  48        -1.52352075
  49         0.16429383
  50        -0.00775737
  51         0.00000000
  52        -1.95520058
  53        -0.03182957
  54         0.00000000
  55        -0.13215067
  56         0.01333118
  57         0.01076157
  58        -0.11348230
  59         0.00000000
  60         0.00000000
  61        -0.06059540
  62        -0.61555351
  63         4.85905284
  64         0.00000000
  65        -0.25106108
  66         0.00000000
  67         0.00000000
  68         2.14986763
  69         0.00000000
  70         0.22606235
  71         0.07747021
  72        -0.02537456
  73         0.00000000
  74         0.00000000
  75         0.00000000
  76        -0.06059540
  77        -0.61555351
  78         4.85905284
  79         0.00000000
  80         0.25106108
  81         0.00000000
  82         0.00000000
  83        -2.14986763
  84         0.00000000
  85         0.22606235
  86         0.07747021
  87        -0.02537456
  88         0.00000000
  89         0.00000000
  90         0.00000000
  91         0.14596317
  92        -1.11792924
  93         0.14596317
  94        -1.11792924
  95         0.14596317
  96        -1.11792924
  97         0.14596317
  98        -1.11792924
Sym=    10ag 
Ene=     4.2856
Spin= Alpha
Occup=    0.00000
   1         0.04324402
   2         0.50785418
   3        -1.72432794
   4        -0.01633769
   5        -0.06296863
   6         0.00000000
   7         0.01614735
   8         0.43258105
   9         0.00000000
  10         0.06877600
  11         0.15783725
  12         0.15827432
  13        -0.00143676
  14         0.00000000
  15         0.00000000
  16         0.04324402
  17         0.50785418
  18        -1.72432794
  19         0.01633769
  20        -0.06296863
  21         0.00000000
  22        -0.01614735
  23         0.43258105
  24         0.00000000
  25         0.06877600
  26         0.15783725
  27         0.15827432
  28         0.00143676
  29         0.00000000
  30         0.00000000
  31         0.04324402
  32         0.50785418
  33        -1.72432794
  34        -0.01633769
  35         0.06296863
  36         0.00000000
  37         0.01614735
  38        -0.43258105
  39         0.00000000
  40         0.06877600
  41         0.15783725
  42         0.15827432
  43         0.00143676
  44         0.00000000
  45         0.00000000
  46         0.04324402
  47         0.50785418
  48        -1.72432794
  49         0.01633769
  50         0.06296863
  51         0.00000000
  52        -0.01614735
  53        -0.43258105
  54         0.00000000
  55         0.06877600
  56         0.15783725
  57         0.15827432
  58        -0.00143676
  59         0.00000000
  60         0.00000000
  61         0.00774262
  62         0.12573234
  63         0.83864451
  64         0.00000000
  65        -0.01427286
  66         0.00000000
  67         0.00000000
  68         0.18392816
  69         0.00000000
  70         0.19872116
  71         0.10652970
  72         0.10629480
  73         0.00000000
  74         0.00000000
  75         0.00000000
  76         0.00774262
  77         0.12573234
  78         0.83864451
  79         0.00000000
  80         0.01427286
  81         0.00000000
  82         0.00000000
  83        -0.18392816
  84         0.00000000
  85         0.19872116
  86         0.10652970
  87         0.10629480
  88         0.00000000
  89         0.00000000
  90         0.00000000
  91        -0.17410921
  92         0.87201993
  93        -0.17410921
  94         0.87201993
  95        -0.17410921
  96         0.87201993
  97        -0.17410921
  98         0.87201993
Sym=    11ag 
Ene=     4.4651
Spin= Alpha
Occup=    0.00000
   1         0.00491818
   2         0.05011652
   3        -1.22912164
   4        -0.02732212
   5        -0.18892389
   6         0.00000000
   7         0.58065542
   8         0.60458267
   9         0.00000000
  10        -0.10587736
  11        -0.10118591
  12        -0.00776479
  13        -0.01671572
  14         0.00000000
  15         0.00000000
  16         0.00491818
  17         0.05011652
  18        -1.22912164
  19         0.02732212
  20        -0.18892389
  21         0.00000000
  22        -0.58065542