[Molden Format]
[N_Atoms]
                   10
[Atoms] (AU)
C1          1      6           2.29938715     -1.36449143      0.00000000
C1          2      6          -2.29938715     -1.36449143      0.00000000
C1          3      6           2.29938715      1.36449143      0.00000000
C1          4      6          -2.29938715      1.36449143      0.00000000
C2          5      6           0.00000000     -2.57816116      0.00000000
C2          6      6           0.00000000      2.57816116      0.00000000
H3          7      1           4.07100245      2.35373806      0.00000000
H3          8      1          -4.07100245      2.35373806      0.00000000
H3          9      1           4.07100245     -2.35373806      0.00000000
H3         10      1          -4.07100245     -2.35373806      0.00000000
[Charge] (Mulliken)
   0.0000000000000000     
   0.0000000000000000     
   0.0000000000000000     
   0.0000000000000000     
   0.0000000000000000     
   0.0000000000000000     
   0.0000000000000000     
   0.0000000000000000     
   0.0000000000000000     
   0.0000000000000000     
[GTO] (AU)
   1
   s   6
  3.047524880E+03  1.834737132E-03
  4.573695180E+02  1.403732281E-02
  1.039486850E+02  6.884262227E-02
  2.921015530E+01  2.321844432E-01
  9.286662960E+00  4.679413484E-01
  3.163926960E+00  3.623119853E-01
   s   3
  7.868272350E+00 -1.193324198E-01
  1.881288540E+00 -1.608541517E-01
  5.442492580E-01  1.143456438E+00
   s   1
  1.687144782E-01  1.000000000E+00
   p   3
  7.868272350E+00  6.899906659E-02
  1.881288540E+00  3.164239610E-01
  5.442492580E-01  7.443082909E-01
   p   1
  1.687144782E-01  1.000000000E+00
   d   1
  8.000000000E-01  1.000000000E+00
 
   2
   s   6
  3.047524880E+03  1.834737132E-03
  4.573695180E+02  1.403732281E-02
  1.039486850E+02  6.884262227E-02
  2.921015530E+01  2.321844432E-01
  9.286662960E+00  4.679413484E-01
  3.163926960E+00  3.623119853E-01
   s   3
  7.868272350E+00 -1.193324198E-01
  1.881288540E+00 -1.608541517E-01
  5.442492580E-01  1.143456438E+00
   s   1
  1.687144782E-01  1.000000000E+00
   p   3
  7.868272350E+00  6.899906659E-02
  1.881288540E+00  3.164239610E-01
  5.442492580E-01  7.443082909E-01
   p   1
  1.687144782E-01  1.000000000E+00
   d   1
  8.000000000E-01  1.000000000E+00
 
   3
   s   6
  3.047524880E+03  1.834737132E-03
  4.573695180E+02  1.403732281E-02
  1.039486850E+02  6.884262227E-02
  2.921015530E+01  2.321844432E-01
  9.286662960E+00  4.679413484E-01
  3.163926960E+00  3.623119853E-01
   s   3
  7.868272350E+00 -1.193324198E-01
  1.881288540E+00 -1.608541517E-01
  5.442492580E-01  1.143456438E+00
   s   1
  1.687144782E-01  1.000000000E+00
   p   3
  7.868272350E+00  6.899906659E-02
  1.881288540E+00  3.164239610E-01
  5.442492580E-01  7.443082909E-01
   p   1
  1.687144782E-01  1.000000000E+00
   d   1
  8.000000000E-01  1.000000000E+00
 
   4
   s   6
  3.047524880E+03  1.834737132E-03
  4.573695180E+02  1.403732281E-02
  1.039486850E+02  6.884262227E-02
  2.921015530E+01  2.321844432E-01
  9.286662960E+00  4.679413484E-01
  3.163926960E+00  3.623119853E-01
   s   3
  7.868272350E+00 -1.193324198E-01
  1.881288540E+00 -1.608541517E-01
  5.442492580E-01  1.143456438E+00
   s   1
  1.687144782E-01  1.000000000E+00
   p   3
  7.868272350E+00  6.899906659E-02
  1.881288540E+00  3.164239610E-01
  5.442492580E-01  7.443082909E-01
   p   1
  1.687144782E-01  1.000000000E+00
   d   1
  8.000000000E-01  1.000000000E+00
 
   5
   s   6
  3.047524880E+03  1.834737132E-03
  4.573695180E+02  1.403732281E-02
  1.039486850E+02  6.884262227E-02
  2.921015530E+01  2.321844432E-01
  9.286662960E+00  4.679413484E-01
  3.163926960E+00  3.623119853E-01
   s   3
  7.868272350E+00 -1.193324198E-01
  1.881288540E+00 -1.608541517E-01
  5.442492580E-01  1.143456438E+00
   s   1
  1.687144782E-01  1.000000000E+00
   p   3
  7.868272350E+00  6.899906659E-02
  1.881288540E+00  3.164239610E-01
  5.442492580E-01  7.443082909E-01
   p   1
  1.687144782E-01  1.000000000E+00
   d   1
  8.000000000E-01  1.000000000E+00
 
   6
   s   6
  3.047524880E+03  1.834737132E-03
  4.573695180E+02  1.403732281E-02
  1.039486850E+02  6.884262227E-02
  2.921015530E+01  2.321844432E-01
  9.286662960E+00  4.679413484E-01
  3.163926960E+00  3.623119853E-01
   s   3
  7.868272350E+00 -1.193324198E-01
  1.881288540E+00 -1.608541517E-01
  5.442492580E-01  1.143456438E+00
   s   1
  1.687144782E-01  1.000000000E+00
   p   3
  7.868272350E+00  6.899906659E-02
  1.881288540E+00  3.164239610E-01
  5.442492580E-01  7.443082909E-01
   p   1
  1.687144782E-01  1.000000000E+00
   d   1
  8.000000000E-01  1.000000000E+00
 
   7
   s   3
  1.873113696E+01  3.349460434E-02
  2.825394365E+00  2.347269535E-01
  6.401216923E-01  8.137573261E-01
   s   1
  1.612777588E-01  1.000000000E+00
 
   8
   s   3
  1.873113696E+01  3.349460434E-02
  2.825394365E+00  2.347269535E-01
  6.401216923E-01  8.137573261E-01
   s   1
  1.612777588E-01  1.000000000E+00
 
   9
   s   3
  1.873113696E+01  3.349460434E-02
  2.825394365E+00  2.347269535E-01
  6.401216923E-01  8.137573261E-01
   s   1
  1.612777588E-01  1.000000000E+00
 
  10
   s   3
  1.873113696E+01  3.349460434E-02
  2.825394365E+00  2.347269535E-01
  6.401216923E-01  8.137573261E-01
   s   1
  1.612777588E-01  1.000000000E+00
 
[MO]
Sym=     1ag 
Ene=   -11.3560
Spin= Alpha
Occup=    2.00000
   1         0.40540574
   2         0.00895933
   3         0.00129712
   4        -0.00115304
   5         0.00058668
   6         0.00000000
   7        -0.00072007
   8         0.00036638
   9         0.00000000
  10         0.00000000
  11         0.00000000
  12         0.00000000
  13        -0.00000000
  14         0.00000000
  15         0.00000000
  16         0.40540574
  17         0.00895933
  18         0.00129712
  19         0.00115304
  20         0.00058668
  21         0.00000000
  22         0.00072007
  23         0.00036638
  24         0.00000000
  25         0.00000000
  26         0.00000000
  27         0.00000000
  28         0.00000000
  29         0.00000000
  30         0.00000000
  31         0.40540574
  32         0.00895933
  33         0.00129712
  34        -0.00115304
  35        -0.00058668
  36         0.00000000
  37        -0.00072007
  38        -0.00036638
  39         0.00000000
  40         0.00000000
  41         0.00000000
  42         0.00000000
  43         0.00000000
  44         0.00000000
  45         0.00000000
  46         0.40540574
  47         0.00895933
  48         0.00129712
  49         0.00115304
  50        -0.00058668
  51         0.00000000
  52         0.00072007
  53        -0.00036638
  54         0.00000000
  55         0.00000000
  56         0.00000000
  57         0.00000000
  58        -0.00000000
  59         0.00000000
  60         0.00000000
  61         0.40434520
  62         0.00902530
  63         0.00139328
  64         0.00000000
  65         0.00129779
  66         0.00000000
  67         0.00000000
  68         0.00081047
  69         0.00000000
  70         0.00000000
  71        -0.00000000
  72        -0.00000000
  73         0.00000000
  74         0.00000000
  75         0.00000000
  76         0.40434520
  77         0.00902530
  78         0.00139328
  79         0.00000000
  80        -0.00129779
  81         0.00000000
  82         0.00000000
  83        -0.00081047
  84         0.00000000
  85         0.00000000
  86        -0.00000000
  87        -0.00000000
  88         0.00000000
  89         0.00000000
  90         0.00000000
  91         0.00098847
  92         0.00110367
  93         0.00098847
  94         0.00110367
  95         0.00098847
  96         0.00110367
  97         0.00098847
  98         0.00110367
Sym=     2ag 
Ene=   -11.3310
Spin= Alpha
Occup=    2.00000
   1        -0.28707652
   2        -0.00474184
   3         0.00086559
   4        -0.00121787
   5        -0.00112694
   6         0.00000000
   7        -0.00076056
   8        -0.00070378
   9         0.00000000
  10        -0.00000000
  11        -0.00000000
  12        -0.00000000
  13         0.00000000
  14         0.00000000
  15         0.00000000
  16        -0.28707652
  17        -0.00474184
  18         0.00086559
  19         0.00121787
  20        -0.00112694
  21         0.00000000
  22         0.00076056
  23        -0.00070378
  24         0.00000000
  25        -0.00000000
  26        -0.00000000
  27        -0.00000000
  28        -0.00000000
  29         0.00000000
  30         0.00000000
  31        -0.28707652
  32        -0.00474184
  33         0.00086559
  34        -0.00121787
  35         0.00112694
  36         0.00000000
  37        -0.00076056
  38         0.00070378
  39         0.00000000
  40        -0.00000000
  41        -0.00000000
  42        -0.00000000
  43        -0.00000000
  44         0.00000000
  45         0.00000000
  46        -0.28707652
  47        -0.00474184
  48         0.00086559
  49         0.00121787
  50         0.00112694
  51         0.00000000
  52         0.00076056
  53         0.00070378
  54         0.00000000
  55        -0.00000000
  56        -0.00000000
  57        -0.00000000
  58         0.00000000
  59         0.00000000
  60         0.00000000
  61         0.57566102
  62         0.00962070
  63        -0.00161090
  64         0.00000000
  65        -0.00070410
  66         0.00000000
  67         0.00000000
  68        -0.00043971
  69         0.00000000
  70         0.00000000
  71         0.00000000
  72         0.00000000
  73         0.00000000
  74         0.00000000
  75         0.00000000
  76         0.57566102
  77         0.00962070
  78        -0.00161090
  79         0.00000000
  80         0.00070410
  81         0.00000000
  82         0.00000000
  83         0.00043971
  84         0.00000000
  85         0.00000000
  86         0.00000000
  87         0.00000000
  88         0.00000000
  89         0.00000000
  90         0.00000000
  91        -0.00049263
  92        -0.00055005
  93        -0.00049263
  94        -0.00055005
  95        -0.00049263
  96        -0.00055005
  97        -0.00049263
  98        -0.00055005
Sym=     3ag 
Ene=    -1.7091
Spin= Alpha
Occup=    2.00000
   1        -0.09840683
   2         0.11866500
   3         0.13422317
   4        -0.04212128
   5         0.03003800
   6         0.00000000
   7        -0.02630472
   8         0.01875872
   9         0.00000000
  10         0.00000000
  11         0.00000000
  12         0.00000000
  13        -0.00000000
  14         0.00000000
  15         0.00000000
  16        -0.09840683
  17         0.11866500
  18         0.13422317
  19         0.04212128
  20         0.03003800
  21         0.00000000
  22         0.02630472
  23         0.01875872
  24         0.00000000
  25         0.00000000
  26         0.00000000
  27         0.00000000
  28         0.00000000
  29         0.00000000
  30         0.00000000
  31        -0.09840683
  32         0.11866500
  33         0.13422317
  34        -0.04212128
  35        -0.03003800
  36         0.00000000
  37        -0.02630472
  38        -0.01875872
  39         0.00000000
  40         0.00000000
  41         0.00000000
  42         0.00000000
  43         0.00000000
  44         0.00000000
  45         0.00000000
  46        -0.09840683
  47         0.11866500
  48         0.13422317
  49         0.04212128
  50        -0.03003800
  51         0.00000000
  52         0.02630472
  53        -0.01875872
  54         0.00000000
  55         0.00000000
  56         0.00000000
  57         0.00000000
  58        -0.00000000
  59         0.00000000
  60         0.00000000
  61        -0.09170659
  62         0.11281847
  63         0.12757046
  64         0.00000000
  65         0.05986955
  66         0.00000000
  67         0.00000000
  68         0.03738850
  69         0.00000000
  70        -0.00000000
  71        -0.00000000
  72        -0.00000000
  73         0.00000000
  74         0.00000000
  75         0.00000000
  76        -0.09170659
  77         0.11281847
  78         0.12757046
  79         0.00000000
  80        -0.05986955
  81         0.00000000
  82         0.00000000
  83        -0.03738850
  84         0.00000000
  85        -0.00000000
  86        -0.00000000
  87        -0.00000000
  88         0.00000000
  89         0.00000000
  90         0.00000000
  91         0.03604089
  92         0.04024152
  93         0.03604089
  94         0.04024152
  95         0.03604089
  96         0.04024152
  97         0.03604089
  98         0.04024152
Sym=     4ag 
Ene=    -0.9744
Spin= Alpha
Occup=    2.00000
   1        -0.03627373
   2         0.05963429
   3         0.06717083
   4         0.16619904
   5         0.01294125
   6         0.00000000
   7         0.10379121
   8         0.00808181
   9         0.00000000
  10        -0.00000000
  11        -0.00000000
  12        -0.00000000
  13         0.00000000
  14         0.00000000
  15         0.00000000
  16        -0.03627373
  17         0.05963429
  18         0.06717083
  19        -0.16619904
  20         0.01294125
  21         0.00000000
  22        -0.10379121
  23         0.00808181
  24         0.00000000
  25        -0.00000000
  26        -0.00000000
  27        -0.00000000
  28        -0.00000000
  29         0.00000000
  30         0.00000000
  31        -0.03627373
  32         0.05963429
  33         0.06717083
  34         0.16619904
  35        -0.01294125
  36         0.00000000
  37         0.10379121
  38        -0.00808181
  39         0.00000000
  40        -0.00000000
  41        -0.00000000
  42        -0.00000000
  43        -0.00000000
  44         0.00000000
  45         0.00000000
  46        -0.03627373
  47         0.05963429
  48         0.06717083
  49        -0.16619904
  50        -0.01294125
  51         0.00000000
  52        -0.10379121
  53        -0.00808181
  54         0.00000000
  55        -0.00000000
  56        -0.00000000
  57        -0.00000000
  58         0.00000000
  59         0.00000000
  60         0.00000000
  61         0.06823883
  62        -0.08692013
  63        -0.09823398
  64         0.00000000
  65        -0.04923086
  66         0.00000000
  67         0.00000000
  68        -0.03074464
  69         0.00000000
  70        -0.00000000
  71         0.00000000
  72         0.00000000
  73         0.00000000
  74         0.00000000
  75         0.00000000
  76         0.06823883
  77        -0.08692013
  78        -0.09823398
  79         0.00000000
  80         0.04923086
  81         0.00000000
  82         0.00000000
  83         0.03074464
  84         0.00000000
  85        -0.00000000
  86         0.00000000
  87         0.00000000
  88         0.00000000
  89         0.00000000
  90         0.00000000
  91         0.10062642
  92         0.11235460
  93         0.10062642
  94         0.11235460
  95         0.10062642
  96         0.11235460
  97         0.10062642
  98         0.11235460
Sym=     5ag 
Ene=    -0.7722
Spin= Alpha
Occup=    2.00000
   1        -0.01904682
   2         0.01592914
   3         0.01814256
   4        -0.00352318
   5         0.18878948
   6         0.00000000
   7        -0.00220023
   8         0.11789893
   9         0.00000000
  10        -0.00000000
  11        -0.00000000
  12        -0.00000000
  13         0.00000000
  14         0.00000000
  15         0.00000000
  16        -0.01904682
  17         0.01592914
  18         0.01814256
  19         0.00352318
  20         0.18878948
  21         0.00000000
  22         0.00220023
  23         0.11789893
  24         0.00000000
  25        -0.00000000
  26        -0.00000000
  27        -0.00000000
  28        -0.00000000
  29         0.00000000
  30         0.00000000
  31        -0.01904682
  32         0.01592914
  33         0.01814256
  34        -0.00352318
  35        -0.18878948
  36         0.00000000
  37        -0.00220023
  38        -0.11789893
  39         0.00000000
  40        -0.00000000
  41        -0.00000000
  42        -0.00000000
  43        -0.00000000
  44         0.00000000
  45         0.00000000
  46        -0.01904682
  47         0.01592914
  48         0.01814256
  49         0.00352318
  50        -0.18878948
  51         0.00000000
  52         0.00220023
  53        -0.11789893
  54         0.00000000
  55        -0.00000000
  56        -0.00000000
  57        -0.00000000
  58         0.00000000
  59         0.00000000
  60         0.00000000
  61         0.08800072
  62        -0.15967083
  63        -0.17965463
  64         0.00000000
  65         0.16287953
  66         0.00000000
  67         0.00000000
  68         0.10171818
  69         0.00000000
  70         0.00000000
  71         0.00000000
  72         0.00000000
  73         0.00000000
  74         0.00000000
  75         0.00000000
  76         0.08800072
  77        -0.15967083
  78        -0.17965463
  79         0.00000000
  80        -0.16287953
  81         0.00000000
  82         0.00000000
  83        -0.10171818
  84         0.00000000
  85         0.00000000
  86         0.00000000
  87         0.00000000
  88         0.00000000
  89         0.00000000
  90         0.00000000
  91        -0.04499109
  92        -0.05023488
  93        -0.04499109
  94        -0.05023488
  95        -0.04499109
  96        -0.05023488
  97        -0.04499109
  98        -0.05023488
Sym=     6ag 
Ene=    -0.3528
Spin= Alpha
Occup=    0.00000
   1         0.00702829
   2        -0.02884136
   3        -0.03226123
   4        -0.03685402
   5        -0.20235074
   6         0.00000000
   7        -0.02301532
   8        -0.12636793
   9         0.00000000
  10        -0.00000000
  11        -0.00000000
  12        -0.00000000
  13         0.00000000
  14         0.00000000
  15         0.00000000
  16         0.00702829
  17        -0.02884136
  18        -0.03226123
  19         0.03685402
  20        -0.20235074
  21         0.00000000
  22         0.02301532
  23        -0.12636793
  24         0.00000000
  25        -0.00000000
  26        -0.00000000
  27        -0.00000000
  28        -0.00000000
  29         0.00000000
  30         0.00000000
  31         0.00702829
  32        -0.02884136
  33        -0.03226123
  34        -0.03685402
  35         0.20235074
  36         0.00000000
  37        -0.02301532
  38         0.12636793
  39         0.00000000
  40        -0.00000000
  41        -0.00000000
  42        -0.00000000
  43        -0.00000000
  44         0.00000000
  45         0.00000000
  46         0.00702829
  47        -0.02884136
  48        -0.03226123
  49         0.03685402
  50         0.20235074
  51         0.00000000
  52         0.02301532
  53         0.12636793
  54         0.00000000
  55        -0.00000000
  56        -0.00000000
  57        -0.00000000
  58         0.00000000
  59         0.00000000
  60         0.00000000
  61         0.03279634
  62        -0.13265986
  63        -0.14840006
  64         0.00000000
  65         0.40208080
  66         0.00000000
  67         0.00000000
  68         0.25109925
  69         0.00000000
  70         0.00000000
  71         0.00000000
  72         0.00000000
  73         0.00000000
  74         0.00000000
  75         0.00000000
  76         0.03279634
  77        -0.13265986
  78        -0.14840006
  79         0.00000000
  80        -0.40208080
  81         0.00000000
  82         0.00000000
  83        -0.25109925
  84         0.00000000
  85         0.00000000
  86         0.00000000
  87         0.00000000
  88         0.00000000
  89         0.00000000
  90         0.00000000
  91         0.09022440
  92         0.10074021
  93         0.09022440
  94         0.10074021
  95         0.09022440
  96         0.10074021
  97         0.09022440
  98         0.10074021
Sym=     7ag 
Ene=    -0.1375
Spin= Alpha
Occup=    0.00000
   1         0.06587098
   2        -0.30573048
   3        -0.34179777
   4        -0.16633269
   5         0.23261601
   6         0.00000000
   7        -0.10387468
   8         0.14526857
   9         0.00000000
  10        -0.00000000
  11         0.00000000
  12         0.00000000
  13        -0.00000000
  14         0.00000000
  15         0.00000000
  16         0.06587098
  17        -0.30573048
  18        -0.34179777
  19         0.16633269
  20         0.23261601
  21         0.00000000
  22         0.10387468
  23         0.14526857
  24         0.00000000
  25        -0.00000000
  26         0.00000000
  27         0.00000000
  28         0.00000000
  29         0.00000000
  30         0.00000000
  31         0.06587098
  32        -0.30573048
  33        -0.34179777
  34        -0.16633269
  35        -0.23261601
  36         0.00000000
  37        -0.10387468
  38        -0.14526857
  39         0.00000000
  40        -0.00000000
  41         0.00000000
  42         0.00000000
  43         0.00000000
  44         0.00000000
  45         0.00000000
  46         0.06587098
  47        -0.30573048
  48        -0.34179777
  49         0.16633269
  50        -0.23261601
  51         0.00000000
  52         0.10387468
  53        -0.14526857
  54         0.00000000
  55        -0.00000000
  56         0.00000000
  57         0.00000000
  58        -0.00000000
  59         0.00000000
  60         0.00000000
  61        -0.03538450
  62         0.14850157
  63         0.16609298
  64         0.00000000
  65        -0.02379456
  66         0.00000000
  67         0.00000000
  68        -0.01485969
  69         0.00000000
  70        -0.00000000
  71        -0.00000000
  72        -0.00000000
  73         0.00000000
  74         0.00000000
  75         0.00000000
  76        -0.03538450
  77         0.14850157
  78         0.16609298
  79         0.00000000
  80         0.02379456
  81         0.00000000
  82         0.00000000
  83         0.01485969
  84         0.00000000
  85        -0.00000000
  86        -0.00000000
  87        -0.00000000
  88         0.00000000
  89         0.00000000
  90         0.00000000
  91         0.33728975
  92         0.37660146
  93         0.33728975
  94         0.37660146
  95         0.33728975
  96         0.37660146
  97         0.33728975
  98         0.37660146
Sym=     8ag 
Ene=    -0.1135
Spin= Alpha
Occup=    0.00000
   1         0.03780453
   2        -0.18838417
   3        -0.21054844
   4         0.39232091
   5         0.07325320
   6         0.00000000
   7         0.24500420
   8         0.04574659
   9         0.00000000
  10         0.00000000
  11         0.00000000
  12         0.00000000
  13        -0.00000000
  14         0.00000000
  15         0.00000000
  16         0.03780453
  17        -0.18838417
  18        -0.21054844
  19        -0.39232091
  20         0.07325320
  21         0.00000000
  22        -0.24500420
  23         0.04574659
  24         0.00000000
  25         0.00000000
  26         0.00000000
  27         0.00000000
  28         0.00000000
  29         0.00000000
  30         0.00000000
  31         0.03780453
  32        -0.18838417
  33        -0.21054844
  34         0.39232091
  35        -0.07325320
  36         0.00000000
  37         0.24500420
  38        -0.04574659
  39         0.00000000
  40         0.00000000
  41         0.00000000
  42         0.00000000
  43         0.00000000
  44         0.00000000
  45         0.00000000
  46         0.03780453
  47        -0.18838417
  48        -0.21054844
  49        -0.39232091
  50        -0.07325320
  51         0.00000000
  52        -0.24500420
  53        -0.04574659
  54         0.00000000
  55         0.00000000
  56         0.00000000
  57         0.00000000
  58        -0.00000000
  59         0.00000000
  60         0.00000000
  61        -0.10238712
  62         0.53198504
  63         0.59448197
  64         0.00000000
  65         0.39118052
  66         0.00000000
  67         0.00000000
  68         0.24429203
  69         0.00000000
  70        -0.00000000
  71        -0.00000000
  72        -0.00000000
  73         0.00000000
  74         0.00000000
  75         0.00000000
  76        -0.10238712
  77         0.53198504
  78         0.59448197
  79         0.00000000
  80        -0.39118052
  81         0.00000000
  82         0.00000000
  83        -0.24429203
  84         0.00000000
  85        -0.00000000
  86        -0.00000000
  87        -0.00000000
  88         0.00000000
  89         0.00000000
  90         0.00000000
  91        -0.11073601
  92        -0.12364249
  93        -0.11073601
  94        -0.12364249
  95        -0.11073601
  96        -0.12364249
  97        -0.11073601
  98        -0.12364249
Sym=     9ag 
Ene=     4.2361
Spin= Alpha
Occup=    0.00000
   1         0.01137834
   2         0.11997984
   3        -1.26335038
   4        -0.17730764
   5         0.00875697
   6         0.00000000
   7         1.72878160
   8        -0.00194203
   9         0.00000000
  10        -0.13059308
  11         0.00380746
  12        -0.00283021
  13        -0.11449762
  14         0.00000000
  15         0.00000000
  16         0.01137834
  17         0.11997984
  18        -1.26335038
  19         0.17730764
  20         0.00875697
  21         0.00000000
  22        -1.72878160
  23        -0.00194203
  24         0.00000000
  25        -0.13059308
  26         0.00380746
  27        -0.00283021
  28         0.11449762
  29         0.00000000
  30         0.00000000
  31         0.01137834
  32         0.11997984
  33        -1.26335038
  34        -0.17730764
  35        -0.00875697
  36         0.00000000
  37         1.72878160
  38         0.00194203
  39         0.00000000
  40        -0.13059308
  41         0.00380746
  42        -0.00283021
  43         0.11449762
  44         0.00000000
  45         0.00000000
  46         0.01137834
  47         0.11997984
  48        -1.26335038
  49         0.17730764
  50        -0.00875697
  51         0.00000000
  52        -1.72878160
  53         0.00194203
  54         0.00000000
  55        -0.13059308
  56         0.00380746
  57        -0.00283021
  58        -0.11449762
  59         0.00000000
  60         0.00000000
  61        -0.06283431
  62        -0.63959044
  63         4.22159870
  64         0.00000000
  65        -0.27764329
  66         0.00000000
  67         0.00000000
  68         2.00515264
  69         0.00000000
  70         0.19308257
  71         0.06786291
  72        -0.02752548
  73         0.00000000
  74         0.00000000
  75         0.00000000
  76        -0.06283431
  77        -0.63959044
  78         4.22159870
  79         0.00000000
  80         0.27764329
  81         0.00000000
  82         0.00000000
  83        -2.00515264
  84         0.00000000
  85         0.19308257
  86         0.06786291
  87        -0.02752548
  88         0.00000000
  89         0.00000000
  90         0.00000000
  91         0.14124440
  92        -1.00789385
  93         0.14124440
  94        -1.00789385
  95         0.14124440
  96        -1.00789385
  97         0.14124440
  98        -1.00789385
Sym=    10ag 
Ene=     4.2853
Spin= Alpha
Occup=    0.00000
   1         0.04563561
   2         0.52813712
   3        -1.86367279
   4        -0.03723854
   5        -0.07535915
   6         0.00000000
   7         0.12061168
   8         0.49786798
   9         0.00000000
  10         0.06370924
  11         0.14148809
  12         0.15228806
  13        -0.00114142
  14         0.00000000
  15         0.00000000
  16         0.04563561
  17         0.52813712
  18        -1.86367279
  19         0.03723854
  20        -0.07535915
  21         0.00000000
  22        -0.12061168
  23         0.49786798
  24         0.00000000
  25         0.06370924
  26         0.14148809
  27         0.15228806
  28         0.00114142
  29         0.00000000
  30         0.00000000
  31         0.04563561
  32         0.52813712
  33        -1.86367279
  34        -0.03723854
  35         0.07535915
  36         0.00000000
  37         0.12061168
  38        -0.49786798
  39         0.00000000
  40         0.06370924
  41         0.14148809
  42         0.15228806
  43         0.00114142
  44         0.00000000
  45         0.00000000
  46         0.04563561
  47         0.52813712
  48        -1.86367279
  49         0.03723854
  50         0.07535915
  51         0.00000000
  52        -0.12061168
  53        -0.49786798
  54         0.00000000
  55         0.06370924
  56         0.14148809
  57         0.15228806
  58        -0.00114142
  59         0.00000000
  60         0.00000000
  61         0.00215513
  62         0.05771486
  63         1.14910725
  64         0.00000000
  65        -0.01943022
  66         0.00000000
  67         0.00000000
  68         0.32271828
  69         0.00000000
  70         0.20886197
  71         0.09326805
  72         0.08663913
  73         0.00000000
  74         0.00000000
  75         0.00000000
  76         0.00215513
  77         0.05771486
  78         1.14910725
  79         0.00000000
  80         0.01943022
  81         0.00000000
  82         0.00000000
  83        -0.32271828
  84         0.00000000
  85         0.20886197
  86         0.09326805
  87         0.08663913
  88         0.00000000
  89         0.00000000
  90         0.00000000
  91        -0.19127615
  92         0.90678488
  93        -0.19127615
  94         0.90678488
  95        -0.19127615
  96         0.90678488
  97        -0.19127615
  98         0.90678488
Sym=    11ag 
Ene=     4.4270
Spin= Alpha
Occup=    0.00000
   1         0.00224862
   2         0.01071156
   3        -0.96459004
   4        -0.02727852
   5        -0.18032512
   6         0.00000000
   7         0.43146774
   8         0.57110229
   9         0.00000000
  10        -0.11008386
  11        -0.10554774
  12        -0.02780983
  13        -0.00938235
  14         0.00000000
  15         0.00000000
  16         0.00224862
  17         0.01071156
  18        -0.96459004
  19         0.02727852
  20        -0.18032512
  21         0.00000000
  22        -0.43146774