   This run of MOLCAS is using the pymolcas driver

                             OPE
                             OPE          NMOL  CASOP  ENMOLC A   SO
                 OPE        NMOLC        AS  OP EN  MO LC     AS  OP
                OPENM       OL CA        SO  PE NM  OL CA     SOP EN
                OP EN      MO   LC       AS  OP ENMOL  CASO   PENMOL
                OP  EN     MO   LC       AS  OP EN     MO     LC ASO
               OP   E  NMOL  C  AS       OP  EN MO     LC     AS  OP
               OP  E   NMO   LC AS        OPEN  MO     LCASOP EN   M
               O  PEN   MO  LCA  SO
            OPE   NMO   L   CAS    OP
        OPENMOL  CASOP     ENMOL   CASOPE
     OPENMOLCA   SOPENMOLCASOPEN   MOLCASOPE
    OPENMOLCAS   OP           EN   MOL    CAS
    OPENMOLCAS       OP  ENM        O     LCA
    OPENMOLCAS    OPEN  MOLCASO     P  E  NMO
    OPENMOLCAS     OP               E  N  MOL
    OPENMOLCA   SO           PENM   O  L  CAS    OPEN    MO    LCAS
    OPENMOLCA   SOP           ENM   O  L  CAS   OP  EN  MOLC  AS   O
    OPENMOLCA   SOPE           NM      O  LCA   S      OP  EN MO
    OPENMOLC                AS         O  PEN   M      OL  CA  SOPE
    OPENMO        LCASOPE  NMOL        C  ASO   P      ENMOLC     AS
    OPE     NMO      LCA  SO     P     E   NM   OL  CA SO  PE N   MO
          OPENMOLCA            SOPE   NMO        LCAS  O    P  ENMO
     OPENMOLCASOPENMOLCASOPENMOLCASOPENMOLCA
        OPENMOLCASOPENMOLCASOPENMOLCASOPE
            OPENMOLCASOPENMOLCASOPENM
               OPENMOLCASOPENMOLCA        version: 24.02
                   OPENMOLCASO
                       OPE                tag: 428-g03afa2e9a

 OpenMolcas is free software; you can redistribute it and/or modify it
 under the terms of the GNU Lesser General Public License version 2.1.
 OpenMolcas is distributed in the hope that it will be useful, but it
 is provided "as is" and without any express or implied warranties.
 For more details see the full text of the license in the file
 LICENSE or in <http://www.gnu.org/licenses/>.

                 Copyright (C) The OpenMolcas Authors
           For the author list and the recommended citation,
                   consult the file CONTRIBUTORS.md

           *************************************************
           * pymolcas version py2.28                       *
           *   build c4a6d18ded8cb6cad61d2372a9abd97c      *
           *   (after the EMIL interpreter by V. Veryazov) *
           *************************************************

configuration info
------------------
Host name: DESKTOP-ET1S6F4 (Linux)
C Compiler ID: GNU
C flags: -std=gnu99 -fopenmp
Fortran Compiler ID: GNU
Fortran flags: -fno-aggressive-loop-optimizations -cpp -fdefault-integer-8 -fopenmp
Definitions: _WARNING_WORKAROUND_;_MOLCAS_;_I8_;_LINUX_
Parallel: OFF (GA=OFF)


   ----------------------------------------------------------------------
  |
  |           Project: product
  |    Submitted from: /home/kenya/molcas_test/exercise_1
  |      Scratch area: /tmp/product
  |   Save outputs to: /home/kenya/molcas_test/exercise_1
  |            Molcas: /home/kenya/OpenMolcas/builds/gnu_dev_omp
  |
  | Scratch area is NOT empty
  |
  |    MOLCAS_DRIVER = /home/kenya/OpenMolcas/builds/gnu_dev_omp/pymolcas
  |    MOLCAS_NPROCS = 1
  |    MOLCAS_SOURCE = /home/kenya/OpenMolcas
  | MOLCAS_STRUCTURE = 0
  |
   ----------------------------------------------------------------------

++ ---------   Input file   ---------

&GATEWAY
Coord = product.Opt.xyz
  Basis = 6-31G*
  Group = Full
  NoCD

&SEWARD

&SCF

&MCKINLEY

-- ----------------------------------

*** symbolic link created: INPORB -> product.ScfOrb
--- Start Module: gateway at Sun Jul  7 16:06:11 2024 ---

()()()()()()()()()()()()()()()()()()()()()()()()()()()()()()()()()()()()()()()()()()()()()()()()()()

                                              &GATEWAY

                                   only a single process is used
                       available to each process: 2.0 GB of memory, 1 thread
                                            pid: 423668
()()()()()()()()()()()()()()()()()()()()()()()()()()()()()()()()()()()()()()()()()()()()()()()()()()

      Found SYMMETRY generators: x y z

++    Symmetry information:
      ---------------------

                    --- Group Generators ---
                    Reflection in the yz-plane  
                    Reflection in the xz-plane  
                    Reflection in the xy-plane  

                    Character Table for D2h

                             E   s(yz) s(xz) C2(z) s(xy) C2(y) C2(x)   i  
                    ag       1     1     1     1     1     1     1     1  
                    b3u      1    -1     1    -1     1    -1     1    -1  x
                    b2u      1     1    -1    -1     1     1    -1    -1  y
                    b1g      1    -1    -1     1     1    -1    -1     1  xy, Rz
                    b1u      1     1     1     1    -1    -1    -1    -1  z
                    b2g      1    -1     1    -1    -1     1    -1     1  xz, Ry
                    b3g      1     1    -1    -1    -1    -1     1     1  yz, Rx
                    au       1    -1    -1     1    -1     1     1    -1  I
--


++    Basis set information:
      ----------------------


      Basis set label: C.6-31G**....

      Electronic valence basis set:
      ------------------
      Associated Effective Charge   6.000000 au
      Associated Actual Charge      6.000000 au
      Nuclear Model: Point charge

      Shell  nPrim  nBasis  Cartesian Spherical Contaminant
         s      10       3        X                  
         p       4       2        X                  
         d       1       1        X                  


      Basis set label: H.6-31G....

      Electronic valence basis set:
      ------------------
      Associated Effective Charge   1.000000 au
      Associated Actual Charge      1.000000 au
      Nuclear Model: Point charge

      Shell  nPrim  nBasis  Cartesian Spherical Contaminant
         s       4       2        X                  
--


++    Molecular structure info:
      -------------------------

                    ************************************************ 
                    **** Cartesian Coordinates / Bohr, Angstrom **** 
                    ************************************************ 

     Center  Label                x              y              z                     x              y              z
        1      C1               2.240592      -1.406685       0.000000              1.185670      -0.744386       0.000000
        2      C1              -2.240592      -1.406685       0.000000             -1.185670      -0.744386       0.000000
        3      C1               2.240592       1.406685       0.000000              1.185670       0.744386       0.000000
        4      C1              -2.240592       1.406685       0.000000             -1.185670       0.744386       0.000000
        5      C2               0.000000      -2.535757       0.000000              0.000000      -1.341865       0.000000
        6      C2               0.000000       2.535757       0.000000              0.000000       1.341865       0.000000
        7      H3               4.089909       2.234122       0.000000              2.164287       1.182247       0.000000
        8      H3              -4.089909       2.234122       0.000000             -2.164287       1.182247       0.000000
        9      H3               4.089909      -2.234122       0.000000              2.164287      -1.182247       0.000000
       10      H3              -4.089909      -2.234122       0.000000             -2.164287      -1.182247       0.000000

                    *************************************** 
                    *    InterNuclear Distances / Bohr    * 
                    *************************************** 

               1 C1            2 C1            3 C1            4 C1            5 C2            6 C2    
    1 C1       0.000000
    2 C1       4.481185        0.000000
    3 C1       2.813370        5.291131        0.000000
    4 C1       5.291131        2.813370        4.481185        0.000000
    5 C2       2.508995        2.508995        4.534656        4.534656        0.000000
    6 C2       4.534656        4.534656        2.508995        2.508995        5.071513        0.000000
    7 H3       4.083559        7.302789        2.025988        6.384348        6.283240        4.101017
    8 H3       7.302789        4.083559        6.384348        2.025988        6.283240        4.101017
    9 H3       2.025988        6.384348        4.083559        7.302789        4.101017        6.283240
   10 H3       6.384348        2.025988        7.302789        4.083559        4.101017        6.283240

               7 H3            8 H3            9 H3           10 H3    
    7 H3       0.000000
    8 H3       8.179819        0.000000
    9 H3       4.468245        9.320657        0.000000
   10 H3       9.320657        4.468245        8.179819        0.000000

                    ******************************************* 
                    *    InterNuclear Distances / Angstrom    * 
                    ******************************************* 

               1 C1            2 C1            3 C1            4 C1            5 C2            6 C2    
    1 C1       0.000000
    2 C1       2.371341        0.000000
    3 C1       1.488771        2.799946        0.000000
    4 C1       2.799946        1.488771        2.371341        0.000000
    5 C2       1.327703        1.327703        2.399636        2.399636        0.000000
    6 C2       2.399636        2.399636        1.327703        1.327703        2.683729        0.000000
    7 H3       2.160926        3.864470        1.072107        3.378452        3.324947        2.170165
    8 H3       3.864470        2.160926        3.378452        1.072107        3.324947        2.170165
    9 H3       1.072107        3.378452        2.160926        3.864470        2.170165        3.324947
   10 H3       3.378452        1.072107        3.864470        2.160926        2.170165        3.324947

               7 H3            8 H3            9 H3           10 H3    
    7 H3       0.000000
    8 H3       4.328574        0.000000
    9 H3       2.364493        4.932279        0.000000
   10 H3       4.932279        2.364493        4.328574        0.000000

                    ************************************** 
                    *    Valence Bond Angles / Degree    * 
                    ************************************** 
                          Atom centers                 Phi
                      3 C1       1 C1       5 C2       116.74
                      3 C1       1 C1       9 H3       114.11
                      5 C2       1 C1       9 H3       129.15
                      4 C1       2 C1       5 C2       116.74
                      4 C1       2 C1      10 H3       114.11
                      5 C2       2 C1      10 H3       129.15
                      1 C1       3 C1       6 C2       116.74
                      1 C1       3 C1       7 H3       114.11
                      6 C2       3 C1       7 H3       129.15
                      2 C1       4 C1       6 C2       116.74
                      2 C1       4 C1       8 H3       114.11
                      6 C2       4 C1       8 H3       129.15
                      1 C1       5 C2       2 C1       126.51
                      3 C1       6 C2       4 C1       126.51

           ***************************************************************
           *              Valence Dihedral Angles / Degree               *
           ***************************************************************
                    Atom centers                       Phi1     Phi2     Theta 
           5 C2       1 C1       3 C1       6 C2        116.74   116.74    -0.00
           5 C2       1 C1       3 C1       7 H3        116.74   114.11  -180.00
           5 C2       2 C1       4 C1       6 C2        116.74   116.74    -0.00
           5 C2       2 C1       4 C1       8 H3        116.74   114.11  -180.00
           6 C2       3 C1       1 C1       9 H3        116.74   114.11  -180.00
           7 H3       3 C1       1 C1       9 H3        114.11   114.11     0.00
           1 C1       3 C1       6 C2       4 C1        116.74   126.51    -0.00
           6 C2       4 C1       2 C1      10 H3        116.74   114.11  -180.00
           8 H3       4 C1       2 C1      10 H3        114.11   114.11    -0.00
           2 C1       4 C1       6 C2       3 C1        116.74   126.51    -0.00
           2 C1       5 C2       1 C1       3 C1        126.51   116.74    -0.00
           2 C1       5 C2       1 C1       9 H3        126.51   129.15  -180.00
           1 C1       5 C2       2 C1       4 C1        126.51   116.74    -0.00
           1 C1       5 C2       2 C1      10 H3        126.51   129.15  -180.00
           4 C1       6 C2       3 C1       7 H3        126.51   129.15  -180.00
           3 C1       6 C2       4 C1       8 H3        126.51   129.15  -180.00
--


            Nuclear Potential Energy            186.86183230 au

--- Stop Module: gateway at Sun Jul  7 16:06:11 2024 /rc=_RC_ALL_IS_WELL_ ---
*** files: xmldump
    saved to directory /home/kenya/molcas_test/exercise_1

*** symbolic link created: INPORB -> product.ScfOrb
--- Start Module: seward at Sun Jul  7 16:06:11 2024 ---

()()()()()()()()()()()()()()()()()()()()()()()()()()()()()()()()()()()()()()()()()()()()()()()()()()

                                              &SEWARD

                                   only a single process is used
                       available to each process: 2.0 GB of memory, 1 thread
                                            pid: 423675
()()()()()()()()()()()()()()()()()()()()()()()()()()()()()()()()()()()()()()()()()()()()()()()()()()

               SEWARD will generate:
                  Multipole Moment integrals up to order  2
                  Kinetic Energy integrals
                  Nuclear Attraction integrals (point charge)
                  One-Electron Hamiltonian integrals
                  Velocity integrals
                  Orbital angular momentum around ( 0.0000  0.0000  0.0000 )
                  Velocity quadrupole around ( 0.0000  0.0000  0.0000 )
                  Two-Electron Repulsion integrals

                   Integrals are discarded if absolute value <: 1.00E-14
                   Integral cutoff threshold is set to       <: 1.00E-16

                    Unitary symmetry adaptation


            Nuclear Potential Energy            186.86183230 au


      Basis set specifications :
      Symmetry species         ag   b3u  b2u  b1g  b1u  b2g  b3g  au 
      Basis functions           21   16   21   16    7    5    7    5


      Input file to MOLDEN was generated!

--- Stop Module: seward at Sun Jul  7 16:06:13 2024 /rc=_RC_ALL_IS_WELL_ ---
*** files: product.GssOrb product.guessorb.molden xmldump
    saved to directory /home/kenya/molcas_test/exercise_1
--- Module seward spent 1 second ---

*** symbolic link created: INPORB -> product.ScfOrb
--- Start Module: scf at Sun Jul  7 16:06:13 2024 ---

()()()()()()()()()()()()()()()()()()()()()()()()()()()()()()()()()()()()()()()()()()()()()()()()()()

                                                &SCF

                                   only a single process is used
                       available to each process: 2.0 GB of memory, 1 thread
                                            pid: 423707
()()()()()()()()()()()()()()()()()()()()()()()()()()()()()()()()()()()()()()()()()()()()()()()()()()

++    Input section:
      --------------

      Header of the integral files:
      
       Integrals generated by Gateway/Seward, Sun Jul  7 16:06:12 2024


      Cartesian coordinates in Angstrom:
      -----------------------------------------------------
      No.  Label        X            Y            Z        
      -----------------------------------------------------
       1   C1         1.18567042  -0.74438572   0.00000000
       2   C2         0.00000000  -1.34186467   0.00000000
       3   H3         2.16428688   1.18224664   0.00000000
       4   C1        -1.18567042  -0.74438572   0.00000000
       5   C1         1.18567042   0.74438572   0.00000000
       6   C1        -1.18567042   0.74438572   0.00000000
       7   C2         0.00000000   1.34186467   0.00000000
       8   H3        -2.16428688   1.18224664   0.00000000
       9   H3         2.16428688  -1.18224664   0.00000000
      10   H3        -2.16428688  -1.18224664   0.00000000
      -----------------------------------------------------
      Nuclear repulsion energy =  186.86183230
--

++    Orbital specifications:
      -----------------------

      Symmetry species               1   2   3   4   5   6   7   8
                                    ag b3u b2u b1g b1u b2g b3g  au
      Frozen orbitals                0   0   0   0   0   0   0   0
      Occupied orbitals              5   4   5   3   1   1   1   0
      Secondary orbitals            16  12  16  13   6   4   6   5
      Deleted orbitals               0   0   0   0   0   0   0   0
      Total number of orbitals      21  16  21  16   7   5   7   5
      Number of basis functions     21  16  21  16   7   5   7   5
--

      Molecular charge                           0.000

++    Optimization specifications:
      ----------------------------

      SCF Algorithm: Conventional
      Minimized density differences are used
      Number of density matrices in core                 5
      Maximum number of NDDO SCF iterations            400
      Maximum number of HF SCF iterations              400
      Threshold for SCF energy change             1.00E-09
      Threshold for density matrix                1.00E-04
      Threshold for Fock matrix                   1.50E-04
      Threshold for linear dependence             1.00E-09
      Threshold at which DIIS is turned on        1.50E-01
      Maximum depth in the DIIS procedure                5
      Maximum depth in the BFGS Hessian update          30
      Threshold at which QNR/C2DIIS is turned on  7.50E-02
      Threshold for Norm(delta) (QNR/C2DIIS)      1.00E-03
      All orbitals punched on: SCFORB
--

      Input vectors read from INPORB
      Orbital file label: * SCF orbitals


++ Convergence information
                                   SCF        iterations: Energy and convergence statistics

Iter     Tot. SCF        One-elec.       Two-elec.     Energy      Max Dij or  Max Fij      DNorm      TNorm      AccCon     Time
         Energy          Energy          Energy        Change      Delta Norm                                                in Sec.
   1  -229.270899824  -678.348847420   262.216115292   0.00E+00    5.53E-10    1.75E-10     6.92E+00   2.59E+02   None         0.
   2  -229.270899824  -678.348847419   262.216115291   8.53E-13*   5.06E-10    3.82E-12     1.13E-09   2.59E+02   EDIIS        0.
   3  -229.270899824  -678.348847419   262.216115291  -2.44E-12    9.22E-11    3.41E-11     6.24E-10   2.59E+02   c2DIIS       0.

       Convergence after   3 Macro Iterations
--

 *****************************************************************************************************************************
 *                                                                                                                           *
 *                                             SCF/KS-DFT Program, Final results                                             *
 *                                                                                                                           *
 *                                                                                                                           *
 *                                                                                                                           *
 *                                                       Final Results                                                       *
 *                                                                                                                           *
 *****************************************************************************************************************************

::    Total SCF energy                               -229.2708998244
      One-electron energy                            -678.3488474191
      Two-electron energy                             262.2161152915
      Nuclear repulsion energy                        186.8618323032
      Kinetic energy (interpolated)                   229.1174717230
      Virial theorem                                    1.0006696482
      Total spin, S(S+1)                                0.0000000000
      Total spin, S                                     0.0000000000
      Max non-diagonal density matrix element           0.0000000001
      Max non-diagonal Fock matrix element              0.0000000000


      All orbitals with orbital energies smaller than  E(LUMO)+0.5 are printed

++    Molecular orbitals:
      -------------------

      Title: SCF orbitals

      Molecular orbitals for symmetry species 1: ag 

          Orbital            1         2         3         4         5         6         7         8    
          Energy          -11.2656  -11.2445   -1.1656   -0.7991   -0.6426   -0.0093    0.2558    0.4453
          Occ. No.          2.0000    2.0000    2.0000    2.0000    2.0000    0.0000    0.0000    0.0000

        1 C1     1s         0.9939   -0.0564   -0.1841   -0.0866    0.0173    0.0113    0.1048    0.0860
        2 C1     2s         0.0271   -0.0023    0.3521    0.1739   -0.0433    0.0143   -0.1707    0.0252
        3 C1     *s        -0.0087    0.0078    0.2240    0.1645   -0.0056   -0.3107   -1.3520   -2.8940
        4 C1     2px        0.0000    0.0005   -0.1191    0.3859    0.1426   -0.1153   -0.1558    0.0763
        5 C1     *px        0.0005   -0.0041   -0.0117    0.1475    0.0716   -0.0276   -0.9558    2.5323
        6 C1     2py       -0.0000    0.0002    0.0520    0.1438   -0.4623   -0.3373    0.2234   -0.0593
        7 C1     *py        0.0007   -0.0001    0.0135    0.0383   -0.1891   -0.2091    0.6667    0.7724
        8 C1     *200      -0.0009   -0.0002    0.0100    0.0031    0.0101    0.0232    0.0098    0.0094
        9 C1     *110       0.0001   -0.0003    0.0022   -0.0146    0.0068   -0.0341   -0.0009    0.0295
       10 C1     *020      -0.0014   -0.0002    0.0070    0.0086   -0.0091   -0.0209   -0.0029   -0.0173
       11 C1     *002      -0.0014   -0.0001   -0.0099   -0.0038    0.0003    0.0008   -0.0008    0.0077
       12 C2     1s         0.0553    0.9942   -0.1351    0.1175   -0.0866    0.0495   -0.0240   -0.1512
       13 C2     2s         0.0009    0.0274    0.2577   -0.2366    0.1769   -0.0645    0.0513    0.1642
       14 C2     *s         0.0047   -0.0154    0.1412   -0.1411    0.2131   -0.2625   -0.0988    4.8352
       15 C2     2py       -0.0002    0.0010    0.1047   -0.0568   -0.1799    0.4475   -0.0243    0.0296
       16 C2     *py        0.0010   -0.0040    0.0113    0.0173   -0.0843    0.5547   -0.5673    1.7382
       17 C2     *200      -0.0002   -0.0005    0.0069   -0.0038    0.0115    0.0085   -0.0180    0.0215
       18 C2     *020      -0.0002   -0.0013   -0.0002    0.0008   -0.0136    0.0032    0.0091   -0.0005
       19 C2     *002      -0.0002   -0.0013   -0.0071    0.0043   -0.0003   -0.0035    0.0032   -0.0024
       20 H3     1s        -0.0003    0.0000    0.0697    0.2198    0.1665    0.1637    0.0107    0.0103
       21 H3     *s         0.0020    0.0009    0.0061    0.0942    0.1041    0.3733    2.1202   -0.8496

      Molecular orbitals for symmetry species 2: b3u

          Orbital            1         2         3         4         5    
          Energy          -11.2656   -1.0213   -0.6533   -0.5550    0.2771
          Occ. No.          2.0000    2.0000    2.0000    2.0000    0.0000

        1 C1     1s         0.9955   -0.2184    0.0217    0.0299    0.0708
        2 C1     2s         0.0275    0.4230   -0.0428   -0.0666   -0.0368
        3 C1     *s        -0.0092    0.3442   -0.0639   -0.0647   -2.0096
        4 C1     2px       -0.0001    0.0087    0.4623    0.1548   -0.3120
        5 C1     *px        0.0009    0.0175    0.1865    0.0951   -0.9100
        6 C1     2py       -0.0000    0.0837    0.1708   -0.5495    0.1404
        7 C1     *py        0.0008    0.0128    0.0742   -0.2479    0.7716
        8 C1     *200      -0.0010    0.0072    0.0073    0.0172   -0.0012
        9 C1     *110       0.0001   -0.0021   -0.0166    0.0002   -0.0078
       10 C1     *020      -0.0014    0.0119    0.0012   -0.0144    0.0004
       11 C1     *002      -0.0014   -0.0105    0.0006   -0.0004    0.0047
       12 C2     2px       -0.0002    0.1926   -0.3837    0.1389    0.0237
       13 C2     *px        0.0022    0.0135   -0.0660    0.0399    0.4571
       14 C2     *110       0.0000    0.0166   -0.0247   -0.0153    0.0201
       15 H3     1s        -0.0003    0.1419    0.1875    0.2104    0.0040
       16 H3     *s         0.0017    0.0263    0.1257    0.1579    2.3327

      Molecular orbitals for symmetry species 3: b2u

          Orbital            1         2         3         4         5         6    
          Energy          -11.2649  -11.2446   -1.0203   -0.6589   -0.2716    0.3033
          Occ. No.          2.0000    2.0000    2.0000    2.0000    2.0000    0.0000

        1 C1     1s         0.9942   -0.0586   -0.1489    0.0793   -0.0796   -0.0927
        2 C1     2s         0.0275   -0.0023    0.2933   -0.1603    0.2004    0.2319
        3 C1     *s        -0.0228    0.0167    0.2062   -0.1654    0.1155   -0.0770
        4 C1     2px       -0.0002    0.0004   -0.1526   -0.4054   -0.1151    0.1885
        5 C1     *px        0.0052   -0.0080    0.0075   -0.2287    0.2414    2.9518
        6 C1     2py        0.0002    0.0003   -0.1497    0.1002    0.0866   -0.1194
        7 C1     *py       -0.0038    0.0018   -0.0257    0.0519    0.1919   -0.6862
        8 C1     *200      -0.0005   -0.0003    0.0158   -0.0099    0.0193   -0.0169
        9 C1     *110       0.0002   -0.0002    0.0109    0.0336   -0.0148   -0.0108
       10 C1     *020      -0.0007   -0.0004   -0.0077    0.0011   -0.0211   -0.0031
       11 C1     *002      -0.0012   -0.0001   -0.0069    0.0037    0.0013    0.0077
       12 C2     1s         0.0575    0.9941   -0.1816   -0.0790    0.0665    0.0095
       13 C2     2s         0.0010    0.0278    0.3514    0.1622   -0.1263   -0.1485
       14 C2     *s         0.0122   -0.0221    0.2669    0.0600    0.0407    2.5588
       15 C2     2py       -0.0002    0.0011    0.0947    0.1029    0.5168   -0.0999
       16 C2     *py        0.0038   -0.0063    0.0221    0.0006    0.5498    1.0878
       17 C2     *200      -0.0004   -0.0005    0.0110   -0.0031   -0.0010    0.0202
       18 C2     *020      -0.0004   -0.0013   -0.0037    0.0034    0.0121   -0.0034
       19 C2     *002      -0.0002   -0.0012   -0.0082   -0.0030   -0.0045   -0.0088
       20 H3     1s         0.0004   -0.0001   -0.0759    0.3180   -0.0530    0.0521
       21 H3     *s        -0.0009   -0.0013   -0.0056    0.1742    0.0224    3.0449

      Molecular orbitals for symmetry species 4: b1g

          Orbital            1         2         3         4         5    
          Energy          -11.2649   -0.8510   -0.5548    0.3236    0.4332
          Occ. No.          2.0000    2.0000    2.0000    0.0000    0.0000

        1 C1     1s         0.9959   -0.1839   -0.0021   -0.1331    0.1193
        2 C1     2s         0.0274    0.3718    0.0114    0.1682   -0.1432
        3 C1     *s        -0.0168    0.3318   -0.0301    2.4500   -2.6660
        4 C1     2px       -0.0001   -0.0256   -0.4829    0.2053    0.2501
        5 C1     *px        0.0020    0.0591   -0.2385    1.7147    1.3319
        6 C1     2py        0.0002   -0.2112   -0.0263    0.0222   -0.3243
        7 C1     *py       -0.0020   -0.0835   -0.0301    0.3092   -2.5278
        8 C1     *200      -0.0008    0.0148   -0.0130    0.0069   -0.0212
        9 C1     *110       0.0002    0.0025    0.0408   -0.0113   -0.0101
       10 C1     *020      -0.0007   -0.0062    0.0013   -0.0100    0.0181
       11 C1     *002      -0.0013   -0.0079    0.0009   -0.0008   -0.0019
       12 C2     2px       -0.0002    0.3163    0.3482   -0.0707   -0.0385
       13 C2     *px        0.0025    0.0442    0.0822   -0.0532    0.5296
       14 C2     *110      -0.0001    0.0161    0.0256    0.0110   -0.0459
       15 H3     1s         0.0002   -0.1813    0.2899   -0.0121    0.0514
       16 H3     *s        -0.0016   -0.0406    0.2251    2.5773    1.4977

      Molecular orbitals for symmetry species 5: b1u

          Orbital            1         2    
          Energy           -0.5174    0.1778
          Occ. No.          2.0000    0.0000

        1 C1     2pz        0.4258   -0.2928
        2 C1     *pz        0.2790   -0.6515
        3 C1     *101      -0.0225   -0.0472
        4 C1     *011       0.0103   -0.0465
        5 C2     2pz        0.3087    0.4512
        6 C2     *pz        0.1640    0.8530
        7 C2     *011       0.0220   -0.0013

      Molecular orbitals for symmetry species 6: b2g

          Orbital            1    
          Energy           -0.3366
          Occ. No.          2.0000

        1 C1     2pz        0.5484
        2 C1     *pz        0.4756
        3 C1     *101      -0.0019
        4 C1     *011       0.0256
        5 C2     *101       0.0340

      Molecular orbitals for symmetry species 7: b3g

          Orbital            1         2    
          Energy           -0.3606    0.3705
          Occ. No.          2.0000    0.0000

        1 C1     2pz        0.3589   -0.4660
        2 C1     *pz        0.2876   -1.3199
        3 C1     *101      -0.0297   -0.0403
        4 C1     *011      -0.0265    0.0094
        5 C2     2pz        0.4395    0.3772
        6 C2     *pz        0.3100    1.0239
        7 C2     *011       0.0215   -0.0082

      Molecular orbitals for symmetry species 8: au 

          Orbital            1    
          Energy            0.1033
          Occ. No.          0.0000

        1 C1     2pz        0.5658
        2 C1     *pz        0.8895
        3 C1     *101      -0.0008
        4 C1     *011      -0.0328
        5 C2     *101       0.0481
--


++    Molecular charges:
      ------------------

      Mulliken charges per centre and basis function type
      ---------------------------------------------------

                C1      C2      H3    
      1s       1.9968  1.9970  0.5151
      2s       0.6920  0.7000  0.0000
      2px      0.7765  0.7870  0.0000
      2pz      0.5421  0.5213  0.0000
      2py      0.6323  0.5772  0.0000
      *s       0.5173  0.4256  0.2375
      *px      0.3086  0.0860  0.0000
      *110     0.0138  0.0156  0.0000
      *020     0.0140 -0.0104  0.0000
      *002    -0.0191 -0.0155  0.0000
      *200     0.0385  0.0299  0.0000
      *pz      0.4873  0.3862  0.0000
      *py      0.2614  0.4382  0.0000
      *101     0.0048  0.0093  0.0000
      *011     0.0051  0.0045  0.0000
      Total    6.2713  5.9520  0.7527

      N-E     -0.2713  0.0480  0.2473

      Total electronic charge=   40.000000

      Total            charge=   -0.000000
--


++    Molecular properties:
      ---------------------

      Charge (e):
                      =    0.0000
      Dipole Moment (Debye):
      Origin of the operator (Ang)=    0.0000    0.0000    0.0000
                   X=  0.0000E+00               Y=  0.0000E+00               Z=  0.0000E+00           Total=  0.0000E+00
      Quadrupole Moment (Debye*Ang):
      Origin of the operator (Ang)=    0.0000    0.0000    0.0000
                  XX= -2.4719E+01              XY=  0.0000E+00              XZ=  0.0000E+00              YY= -3.8063E+01
                  YZ=  0.0000E+00              ZZ= -3.8169E+01
      In traceless form (Debye*Ang)
                  XX=  1.3397E+01              XY=  0.0000E+00              XZ=  0.0000E+00              YY= -6.6196E+00
                  YZ=  0.0000E+00              ZZ= -6.7777E+00
--


      Input file to MOLDEN was generated!

 ###############################################################################
 ###############################################################################
 ###                                                                         ###
 ###                                                                         ###
 ###    WARNING: RunFile label nBas                                          ###
 ###    was used       60 times                                              ###
 ###                                                                         ###
 ###                                                                         ###
 ###############################################################################
 ###############################################################################
--- Stop Module: scf at Sun Jul  7 16:06:13 2024 /rc=_RC_ALL_IS_WELL_ ---
*** files: product.scf.molden product.ScfOrb xmldump
    saved to directory /home/kenya/molcas_test/exercise_1

*** symbolic link created: INPORB -> product.ScfOrb
--- Start Module: mckinley at Sun Jul  7 16:06:13 2024 ---

()()()()()()()()()()()()()()()()()()()()()()()()()()()()()()()()()()()()()()()()()()()()()()()()()()

                                             &MCKINLEY

                                   only a single process is used
                       available to each process: 2.0 GB of memory, 1 thread
                                            pid: 423720
()()()()()()()()()()()()()()()()()()()()()()()()()()()()()()()()()()()()()()()()()()()()()()()()()()


                     Threshold for contributions to the gradient or Hessian: 1.000E-07

 **************************************************************************************************************************
 *                                                                                                                        *
 *                 All data is written to disk, and could be accessed through the MCLR or RASSI program.                  *
 *                                                                                                                        *
 **************************************************************************************************************************
--- Stop Module: mckinley at Sun Jul  7 16:06:22 2024 /rc=_RC_INVOKED_OTHER_MODULE_ ---
*** files: xmldump
    saved to directory /home/kenya/molcas_test/exercise_1
--- Module mckinley spent 8 seconds ---

*** symbolic link created: INPORB -> product.ScfOrb
--- Start Module: mclr at Sun Jul  7 16:06:22 2024 ---

()()()()()()()()()()()()()()()()()()()()()()()()()()()()()()()()()()()()()()()()()()()()()()()()()()

                                               &MCLR

                                   only a single process is used
                       available to each process: 2.0 GB of memory, 1 thread
                                            pid: 423827
()()()()()()()()()()()()()()()()()()()()()()()()()()()()()()()()()()()()()()()()()()()()()()()()()()

 Ordinary integral handling
 OrdInt status: non-squared

++   Wave function specifications:
     -----------------------------
     Wavefunction type:                          SCF
     Number of irreducible symmetry groups       8
     Number of basis functions                  21    16    21    16     7     5     7     5
     Number of occupied orbitals                 5     4     5     3     1     1     1     0
     SCF energy =                  -229.2708998244
--

     Convergence threshold=               1.0000E-04
     Max number of iterations in PCG:            200

++   Perturbation specifications:
     ----------------------------

     Number of perturbations in each symmetry      5   6   6   5   4   2   3   2
     Type of perturbation:                         Hessian         
--

++   Perturbations:
     --------------

     -------------------------------------
      No.    Symmetry    Center Direction 
     -------------------------------------
       1       ag           C1         x
       2       ag           C1         y
       3       ag           C2         y
       4       ag           H3         x
       5       ag           H3         y
       6       b3u          C1         x
       7       b3u          C1         y
       8       b3u          C2         x
       9       b3u          H3         x
      10       b3u          H3         y
      11       b3u          MLTPL  1 X
      12       b2u          C1         x
      13       b2u          C1         y
      14       b2u          C2         y
      15       b2u          H3         x
      16       b2u          H3         y
      17       b2u          MLTPL  1 Y
      18       b1g          C1         x
      19       b1g          C1         y
      20       b1g          C2         x
      21       b1g          H3         x
      22       b1g          H3         y
      23       b1u          C1         z
      24       b1u          C2         z
      25       b1u          H3         z
      26       b1u          MLTPL  1 Z
      27       b2g          C1         z
      28       b2g          H3         z
      29       b3g          C1         z
      30       b3g          C2         z
      31       b3g          H3         z
      32       au           C1         z
      33       au           H3         z
     -------------------------------------
--


     Linear response function is computed for Restricted Hartree-Fock wavefunction

 Process perturbation number                     1
      Perturbation no:    1 converged in    6 steps.

 Process perturbation number                     2
      Perturbation no:    2 converged in    7 steps.

 Process perturbation number                     3
      Perturbation no:    3 converged in    6 steps.

 Process perturbation number                     4
      Perturbation no:    4 converged in    6 steps.

 Process perturbation number                     5
      Perturbation no:    5 converged in    5 steps.

 Process perturbation number                     6
      Perturbation no:    6 converged in    7 steps.

 Process perturbation number                     7
      Perturbation no:    7 converged in    7 steps.

 Process perturbation number                     8
      Perturbation no:    8 converged in    7 steps.

 Process perturbation number                     9
      Perturbation no:    9 converged in    6 steps.

 Process perturbation number                    10
      Perturbation no:   10 converged in    6 steps.

 Process perturbation number                    11
      Perturbation no:   11 converged in    8 steps.

 Process perturbation number                    12
      Perturbation no:   12 converged in    9 steps.

 Process perturbation number                    13
      Perturbation no:   13 converged in    9 steps.

 Process perturbation number                    14
      Perturbation no:   14 converged in    9 steps.

 Process perturbation number                    15
      Perturbation no:   15 converged in    9 steps.

 Process perturbation number                    16
      Perturbation no:   16 converged in    9 steps.

 Process perturbation number                    17
      Perturbation no:   17 converged in   10 steps.

 Process perturbation number                    18
      Perturbation no:   18 converged in    5 steps.

 Process perturbation number                    19
      Perturbation no:   19 converged in    5 steps.

 Process perturbation number                    20
      Perturbation no:   20 converged in    6 steps.

 Process perturbation number                    21
      Perturbation no:   21 converged in    5 steps.

 Process perturbation number                    22
      Perturbation no:   22 converged in    5 steps.

 Process perturbation number                    23
      Perturbation no:   23 converged in    5 steps.

 Process perturbation number                    24
      Perturbation no:   24 converged in    5 steps.

 Process perturbation number                    25
      Perturbation no:   25 converged in    4 steps.

 Process perturbation number                    26
      Perturbation no:   26 converged in    5 steps.

 Process perturbation number                    27
      Perturbation no:   27 converged in    6 steps.

 Process perturbation number                    28
      Perturbation no:   28 converged in    6 steps.

 Process perturbation number                    29
      Perturbation no:   29 converged in    6 steps.

 Process perturbation number                    30
      Perturbation no:   30 converged in    6 steps.

 Process perturbation number                    31
      Perturbation no:   31 converged in    5 steps.

 Process perturbation number                    32
      Perturbation no:   32 converged in    4 steps.

 Process perturbation number                    33
      Perturbation no:   33 converged in    4 steps.


      ************************************
      *                                  *
      * Harmonic frequencies in cm-1     *
      * Intensities in km/mole           *
      *                                  *
      * No correction due to curvilinear *
      * representations has been done    *
      *                                  *
      ************************************


    Symmetry ag 
   ==============

                        1         2         3         4         5

     Frequency:       775.43    981.52   1262.91   1380.12   3432.36                                                    

     C1         x   -0.21176   0.14483   0.06264   0.19286  -0.04216
     C1         y   -0.03235  -0.27003  -0.00126   0.20633   0.01553
     C2         y   -0.46772  -0.13599  -0.01682  -0.24301   0.00360
     H3         x   -0.06809   0.11733   0.25368  -0.02175   0.45732
     H3         y   -0.30016   0.36482  -0.42612   0.37447   0.19707



    Symmetry b3u
   ==============

                        1         2         3         4         5

     Frequency:        i0.01    309.59   1148.65   1548.88   3433.11                                                    

     Intensity:    2.073E-08 6.361E+00 2.088E+01 1.532E+01 4.406E+00
     Red. mass:      7.60309  11.03619   1.12988   4.67282   1.09495

     C1         x    0.31623  -0.07423   0.03603  -0.14498   0.04099
     C1         y   -0.00001  -0.46341  -0.02024   0.05918  -0.01697
     C2         x    0.31623   0.12508  -0.04622   0.34302  -0.00519
     H3         x    0.31623   0.13908  -0.15382  -0.31588  -0.45714
     H3         y   -0.00000  -0.05076   0.47283   0.25858  -0.19758



    Symmetry b2u
   ==============

                        1         2         3         4         5

     Frequency:      i618.63     i0.05   1168.78   1509.24   3408.76                                                    

     Intensity:    4.459E+03 1.699E-07 7.190E+01 2.078E+01 3.566E+01
     Red. mass:      7.03878   7.60314   1.52806   2.58736   1.08701

     C1         x   -0.16510  -0.00000  -0.10322   0.14854   0.03984
     C1         y    0.17247  -0.31623   0.00989   0.09111  -0.01410
     C2         y   -0.40040  -0.31623   0.04645  -0.10545  -0.00547
     H3         x    0.06152   0.00000   0.28757   0.07234   0.45610
     H3         y    0.33023  -0.31623  -0.39430  -0.45699   0.20042



    Symmetry b1g
   ==============

                        1         2         3         4         5

     Frequency:         1.34    592.84   1343.59   1869.30   3414.41                                                    

     C1         x   -0.12446  -0.25687  -0.02561   0.24529   0.04041
     C1         y   -0.19825   0.25077  -0.03914   0.13309  -0.01527
     C2         x   -0.22437  -0.14256  -0.05481  -0.49822  -0.00424
     H3         x    0.19768   0.31320  -0.19135  -0.17639   0.45658
     H3         y   -0.36188   0.11346   0.45792  -0.12999   0.19914



    Symmetry b1u
   ==============

                        1         2         3

     Frequency:        i0.07    520.21    813.44                                                                        

     Intensity:    2.135E-08 3.315E+01 9.779E+01
     Red. mass:      7.60318   2.69934   1.52226

     C1         z    0.31623   0.08602  -0.08672
     C2         z    0.22361  -0.17627   0.06466
     H3         z    0.44721   0.65043   0.69036



    Symmetry b2g
   ==============

                        1         2

     Frequency:      i976.76     i1.94                                                                                  

     C1         z   -0.07576   0.24024
     H3         z    0.49423   0.43850



    Symmetry b3g
   ==============

                        1         2         3

     Frequency:      i318.01      1.99    947.11                                                                        

     C1         z   -0.13415   0.22039  -0.10437
     C2         z    0.15308   0.28085   0.03081
     H3         z    0.64587  -0.49508  -0.69016



    Symmetry au 
   ==============

                        1         2

     Frequency:       489.33   1004.00                                                                                  

     C1         z   -0.24781  -0.07280
     H3         z    0.43427  -0.49467



++ Thermochemistry

 *********************
 *                   *
 *  THERMOCHEMISTRY  *
 *                   *
 *********************

 Mass-centered Coordinates (Angstrom):
 ********************************************************
 Label        X           Y           Z          Mass  
 --------------------------------------------------------
 C1         0.000000   -0.744386    1.185670     12.00000
 C2         0.000000   -1.341865    0.000000     12.00000
 H3         0.000000    1.182247    2.164287      1.00783
 C1         0.000000   -0.744386   -1.185670     12.00000
 H3         0.000000    1.182247   -2.164287      1.00783
 C1         0.000000    0.744386    1.185670     12.00000
 C2         0.000000    1.341865    0.000000     12.00000
 H3         0.000000   -1.182247    2.164287      1.00783
 C1         0.000000    0.744386   -1.185670     12.00000
 H3         0.000000   -1.182247   -2.164287      1.00783
 --------------------------------------------------------
 Molecular mass:   76.031300
 Rotational Constants (cm-1):    0.1042    0.1952    0.2234
 Rotational Constants (GHz) :    3.1233    5.8519    6.6985
 Rotational temperatures (K):    0.1499    0.2808    0.3215
 Rotational Symmetry factor:  1
  *** Warning:                     3  vibrational contributions removed.
 Vibrational temperature (K): 
   1115.67  1412.20  1817.05  1985.69  4938.40
    445.43  1652.65  2228.50  4939.48  1681.62
   2171.46  4904.44   852.97  1933.13  2689.51
   4912.57   748.46  1170.35  1362.68   704.04
   1444.53
 Number of trans. and rot. degrees of freedom:  6
 ZPVE                44.822 kcal/mol      0.071429 au.
 ZPVE corrected energy                 -229.199471 au.

 *****************************************************
 Temperature =     0.00 Kelvin, Pressure =   1.00 atm
 -----------------------------------------------------
 Molecular Partition Function and Molar Entropy:
                        q/V (M**-3)    S(kcal/mol*K)
 Electronic            1.000000E+00        0.000
 Translational         1.000000E+00        0.000
 Rotational            1.000000E+00        2.981
 Vibrational           1.000000E+00        0.000
 TOTAL                 1.000000E+00        2.981

 Thermal contributions to INTERNAL ENERGY:
 Electronic           0.000 kcal/mol      0.000000 au.
 Translational        0.000 kcal/mol      0.000000 au.
 Rotational           0.000 kcal/mol      0.000000 au.
 Vibrational         44.822 kcal/mol      0.071429 au.
 TOTAL               44.822 kcal/mol      0.071429 au.

 Thermal contributions to
 ENTHALPY            44.822 kcal/mol      0.071429 au.
 GIBBS FREE ENERGY   44.822 kcal/mol      0.071429 au.

 Sum of energy and thermal contributions
 INTERNAL ENERGY                       -229.199471 au.
 ENTHALPY                              -229.199471 au.
 GIBBS FREE ENERGY                     -229.199471 au.
 -----------------------------------------------------

 *****************************************************
 Temperature =   100.00 Kelvin, Pressure =   1.00 atm
 -----------------------------------------------------
 Molecular Partition Function and Molar Entropy:
                        q/V (M**-3)    S(kcal/mol*K)
 Electronic            1.000000E+00        0.000
 Translational         3.939934E+27       33.474
 Rotational            1.523602E+04       22.120
 Vibrational           1.119181E-98        0.155
 TOTAL                 6.718325E-67       55.750

 Thermal contributions to INTERNAL ENERGY:
 Electronic           0.000 kcal/mol      0.000000 au.
 Translational        0.298 kcal/mol      0.000475 au.
 Rotational           0.298 kcal/mol      0.000475 au.
 Vibrational         44.835 kcal/mol      0.071449 au.
 TOTAL               45.431 kcal/mol      0.072399 au.

 Thermal contributions to
 ENTHALPY            45.630 kcal/mol      0.072716 au.
 GIBBS FREE ENERGY   40.055 kcal/mol      0.063832 au.

 Sum of energy and thermal contributions
 INTERNAL ENERGY                       -229.198501 au.
 ENTHALPY                              -229.198184 au.
 GIBBS FREE ENERGY                     -229.207068 au.
 -----------------------------------------------------

 *****************************************************
 Temperature =   273.15 Kelvin, Pressure =   1.00 atm
 -----------------------------------------------------
 Molecular Partition Function and Molar Entropy:
                        q/V (M**-3)    S(kcal/mol*K)
 Electronic            1.000000E+00        0.000
 Translational         1.778651E+28       38.466
 Rotational            6.878178E+04       25.116
 Vibrational           2.188077E-36        3.339
 TOTAL                 2.676866E-03       66.921

 Thermal contributions to INTERNAL ENERGY:
 Electronic           0.000 kcal/mol      0.000000 au.
 Translational        0.814 kcal/mol      0.001298 au.
 Rotational           0.814 kcal/mol      0.001298 au.
 Vibrational         45.482 kcal/mol      0.072480 au.
 TOTAL               47.110 kcal/mol      0.075075 au.

 Thermal contributions to
 ENTHALPY            47.653 kcal/mol      0.075940 au.
 GIBBS FREE ENERGY   29.374 kcal/mol      0.046810 au.

 Sum of energy and thermal contributions
 INTERNAL ENERGY                       -229.195825 au.
 ENTHALPY                              -229.194960 au.
 GIBBS FREE ENERGY                     -229.224090 au.
 -----------------------------------------------------

 *****************************************************
 Temperature =   298.15 Kelvin, Pressure =   1.00 atm
 -----------------------------------------------------
 Molecular Partition Function and Molar Entropy:
                        q/V (M**-3)    S(kcal/mol*K)
 Electronic            1.000000E+00        0.000
 Translational         2.028342E+28       38.901
 Rotational            7.843752E+04       25.377
 Vibrational           2.499192E-33        4.050
 TOTAL                 3.976167E+00       68.328

 Thermal contributions to INTERNAL ENERGY:
 Electronic           0.000 kcal/mol      0.000000 au.
 Translational        0.889 kcal/mol      0.001416 au.
 Rotational           0.889 kcal/mol      0.001416 au.
 Vibrational         45.685 kcal/mol      0.072804 au.
 TOTAL               47.463 kcal/mol      0.075636 au.

 Thermal contributions to
 ENTHALPY            48.055 kcal/mol      0.076581 au.
 GIBBS FREE ENERGY   27.683 kcal/mol      0.044116 au.

 Sum of energy and thermal contributions
 INTERNAL ENERGY                       -229.195263 au.
 ENTHALPY                              -229.194319 au.
 GIBBS FREE ENERGY                     -229.226784 au.
 -----------------------------------------------------

 *****************************************************
 Temperature =   323.15 Kelvin, Pressure =   1.00 atm
 -----------------------------------------------------
 Molecular Partition Function and Molar Entropy:
                        q/V (M**-3)    S(kcal/mol*K)
 Electronic            1.000000E+00        0.000
 Translational         2.288733E+28       39.301
 Rotational            8.850705E+04       25.617
 Vibrational           9.881143E-31        4.803
 TOTAL                 2.001613E+03       69.720

 Thermal contributions to INTERNAL ENERGY:
 Electronic           0.000 kcal/mol      0.000000 au.
 Translational        0.963 kcal/mol      0.001535 au.
 Rotational           0.963 kcal/mol      0.001535 au.
 Vibrational         45.919 kcal/mol      0.073176 au.
 TOTAL               47.845 kcal/mol      0.076246 au.

 Thermal contributions to
 ENTHALPY            48.487 kcal/mol      0.077270 au.
 GIBBS FREE ENERGY   25.957 kcal/mol      0.041366 au.

 Sum of energy and thermal contributions
 INTERNAL ENERGY                       -229.194653 au.
 ENTHALPY                              -229.193630 au.
 GIBBS FREE ENERGY                     -229.229534 au.
 -----------------------------------------------------

 *****************************************************
 Temperature =   373.15 Kelvin, Pressure =   1.00 atm
 -----------------------------------------------------
 Molecular Partition Function and Molar Entropy:
                        q/V (M**-3)    S(kcal/mol*K)
 Electronic            1.000000E+00        0.000
 Translational         2.839972E+28       40.016
 Rotational            1.098239E+05       26.046
 Vibrational           1.510474E-26        6.401
 TOTAL                 4.711119E+07       72.463

 Thermal contributions to INTERNAL ENERGY:
 Electronic           0.000 kcal/mol      0.000000 au.
 Translational        1.112 kcal/mol      0.001773 au.
 Rotational           1.112 kcal/mol      0.001773 au.
 Vibrational         46.476 kcal/mol      0.074064 au.
 TOTAL               48.700 kcal/mol      0.077609 au.

 Thermal contributions to
 ENTHALPY            49.442 kcal/mol      0.078791 au.
 GIBBS FREE ENERGY   22.402 kcal/mol      0.035701 au.

 Sum of energy and thermal contributions
 INTERNAL ENERGY                       -229.193291 au.
 ENTHALPY                              -229.192109 au.
 GIBBS FREE ENERGY                     -229.235199 au.
 -----------------------------------------------------

 *****************************************************
 Temperature =   473.15 Kelvin, Pressure =   1.00 atm
 -----------------------------------------------------
 Molecular Partition Function and Molar Entropy:
                        q/V (M**-3)    S(kcal/mol*K)
 Electronic            1.000000E+00        0.000
 Translational         4.054966E+28       41.195
 Rotational            1.568086E+05       26.753
 Vibrational           1.023915E-20        9.822
 TOTAL                 6.510598E+13       77.771

 Thermal contributions to INTERNAL ENERGY:
 Electronic           0.000 kcal/mol      0.000000 au.
 Translational        1.410 kcal/mol      0.002248 au.
 Rotational           1.410 kcal/mol      0.002248 au.
 Vibrational         47.925 kcal/mol      0.076373 au.
 TOTAL               50.746 kcal/mol      0.080869 au.

 Thermal contributions to
 ENTHALPY            51.686 kcal/mol      0.082367 au.
 GIBBS FREE ENERGY   14.889 kcal/mol      0.023727 au.

 Sum of energy and thermal contributions
 INTERNAL ENERGY                       -229.190031 au.
 ENTHALPY                              -229.188533 au.
 GIBBS FREE ENERGY                     -229.247173 au.
 -----------------------------------------------------
--


 ************************************
 *                                  *
 *       Polarizabilities           *
 *                                  *
 ************************************



       70.3385145113073946
       -0.0000000000000000    141.9197726318826369
       -0.0000000000000000     -0.0000000000000000     20.8935333351592369

++    Isotopic shifts:
      ----------------



 ****************************************
 *                                      *
 * Isotope shifted frequencies in cm-1  *
 *                                      *
 ****************************************


  Single substitutions:
  -----------------------

 Masses:
 =======
  13  12  12  12  12  12   1   1   1   1


 Frequencies:
 ============
                         1         2         3         4         5         6

            Freq.    i974.67   i616.22   i317.04     i1.92     i0.07     i0.05                                               


                         7         8         9        10        11        12

            Freq.      i0.01      1.33      1.99    306.59    485.38    519.60                                               


                        13        14        15        16        17        18

            Freq.     587.59    773.20    811.52    943.93    973.68   1002.14                                               


                        19        20        21        22        23        24

            Freq.    1147.68   1164.86   1260.89   1342.00   1371.17   1501.26                                               


                        25        26        27        28        29        30

            Freq.    1545.40   1862.76   3403.99   3412.49   3428.36   3432.77                                               


 Masses:
 =======
  14  12  12  12  12  12   1   1   1   1


 Frequencies:
 ============
                         1         2         3         4         5         6

            Freq.    i972.86   i614.00   i316.16     i1.91     i0.07     i0.05                                               


                         7         8         9        10        11        12

            Freq.      i0.01      1.32      1.98    303.80    481.70    519.16                                               


                        13        14        15        16        17        18

            Freq.     582.61    771.06    809.79    941.13    966.75   1000.73                                               


                        19        20        21        22        23        24

            Freq.    1146.41   1161.42   1258.97   1339.50   1363.79   1494.92                                               


                        25        26        27        28        29        30

            Freq.    1542.78   1857.58   3397.21   3411.91   3426.40   3432.75                                               


 Masses:
 =======
  12  12  12  12  13  12   1   1   1   1


 Frequencies:
 ============
                         1         2         3         4         5         6

            Freq.    i976.76   i611.86   i315.51     i1.94     i0.07     i0.05                                               


                         7         8         9        10        11        12

            Freq.      i0.01      1.33      1.97    309.37    489.33    514.55                                               


                        13        14        15        16        17        18

            Freq.     592.01    764.94    811.38    946.58    980.02   1004.00                                               


                        19        20        21        22        23        24

            Freq.    1147.54   1168.00   1262.76   1341.74   1373.57   1506.41                                               


                        25        26        27        28        29        30

            Freq.    1529.56   1848.68   3408.71   3414.38   3432.34   3433.07                                               


 Masses:
 =======
  12  12  12  12  14  12   1   1   1   1


 Frequencies:
 ============
                         1         2         3         4         5         6

            Freq.    i976.76   i605.66   i313.27     i1.94     i0.07     i0.05                                               


                         7         8         9        10        11        12

            Freq.      i0.01      1.32      1.95    309.17    489.33    509.54                                               


                        13        14        15        16        17        18

            Freq.     591.22    755.20    809.65    946.14    978.74   1004.00                                               


                        19        20        21        22        23        24

            Freq.    1146.38   1167.31   1262.63   1339.64   1367.91   1504.23                                               


                        25        26        27        28        29        30

            Freq.    1511.13   1832.85   3408.68   3414.36   3432.32   3433.04                                               


 Masses:
 =======
  12  12  12  12  12  12   2   1   1   1


 Frequencies:
 ============
                         1         2         3         4         5         6

            Freq.    i919.72   i614.41   i308.24     i1.89     i0.07     i0.05                                               


                         7         8         9        10        11        12

            Freq.      i0.01      1.31      1.98    309.28    470.64    508.21                                               


                        13        14        15        16        17        18

            Freq.     588.11    752.70    767.37    898.16    900.43    981.23                                               


                        19        20        21        22        23        24

            Freq.     986.72   1154.33   1224.73   1313.75   1375.72   1490.16                                               


                        25        26        27        28        29        30

            Freq.    1536.85   1863.38   2531.57   3411.23   3422.63   3432.74                                               


 Masses:
 =======
  12  12  12  12  12  12   3   1   1   1


 Frequencies:
 ============
                         1         2         3         4         5         6

            Freq.    i894.85   i611.27   i301.30     i1.84     i0.07     i0.05                                               


                         7         8         9        10        11        12

            Freq.      i0.01      1.29      1.96    308.97    449.31    505.01                                               


                        13        14        15        16        17        18

            Freq.     583.24    718.42    729.58    800.59    889.51    974.43                                               


                        19        20        21        22        23        24

            Freq.     979.21   1147.76   1221.25   1309.45   1372.58   1483.32                                               


                        25        26        27        28        29        30

            Freq.    1527.55   1852.02   2178.25   3411.23   3422.60   3432.74                                               



  Full substitutions:
  -----------------------

 Masses:
 =======
  12  12  12  12  12  12   2   2   2   2


 Frequencies:
 ============
                         1         2         3         4         5         6

            Freq.    i762.63   i602.07   i282.91     i1.75     i0.06     i0.05                                               


                         7         8         9        10        11        12

            Freq.      i0.01      1.25      1.92    308.37    437.41    439.96                                               


                        13        14        15        16        17        18

            Freq.     574.64    698.14    741.83    780.67    794.51    830.97                                               


                        19        20        21        22        23        24

            Freq.     887.29    898.60   1000.79   1019.29   1360.04   1403.62                                               


                        25        26        27        28        29        30

            Freq.    1490.56   1844.51   2515.13   2526.56   2542.04   2543.12                                               


 Masses:
 =======
  12  12  12  12  12  12   3   3   3   3


 Frequencies:
 ============
                         1         2         3         4         5         6

            Freq.    i676.53   i590.06   i261.53     i1.62     i0.06     i0.05                                               


                         7         8         9        10        11        12

            Freq.      i0.01      1.17      1.86    307.18    383.22    390.60                                               


                        13        14        15        16        17        18

            Freq.     557.32    666.45    671.18    684.43    713.55    727.07                                               


                        19        20        21        22        23        24

            Freq.     760.96    815.23    885.11    951.71   1347.90   1351.01                                               


                        25        26        27        28        29        30

            Freq.    1446.18   1795.68   2154.56   2183.07   2185.21   2188.31                                               


 Masses:
 =======
  13  13  13  13  13  13   1   1   1   1


 Frequencies:
 ============
                         1         2         3         4         5         6

            Freq.    i968.48   i595.79   i309.09     i1.88     i0.06     i0.05                                               


                         7         8         9        10        11        12

            Freq.      i0.01      1.29      1.92    297.50    473.76    505.75                                               


                        13        14        15        16        17        18

            Freq.     570.90    746.26    802.12    933.37    946.65    996.18                                               


                        19        20        21        22        23        24

            Freq.    1142.59   1150.17   1252.73   1333.40   1335.71   1471.06                                               


                        25        26        27        28        29        30

            Freq.    1497.29   1797.07   3398.36   3403.60   3420.69   3421.67                                               


 Masses:
 =======
  14  14  14  14  14  14   1   1   1   1


 Frequencies:
 ============
                         1         2         3         4         5         6

            Freq.    i961.36   i575.41   i300.98     i1.82     i0.06     i0.05                                               


                         7         8         9        10        11        12

            Freq.      i0.01      1.25      1.86    286.75    459.53    492.17                                               


                        13        14        15        16        17        18

            Freq.     551.28    720.17    792.88    915.14    921.37    989.70                                               


                        19        20        21        22        23        24

            Freq.    1130.79   1135.64   1235.85   1300.19   1328.93   1439.85                                               


                        25        26        27        28        29        30

            Freq.    1452.85   1732.81   3389.58   3394.49   3410.84   3411.99                                               


--


      The response parameters are written to the file RESP.
--- Stop Module: mclr at Sun Jul  7 16:06:24 2024 /rc=_RC_ALL_IS_WELL_ ---
*** files: product.freq.molden product.UnSym xmldump
    saved to directory /home/kenya/molcas_test/exercise_1
--- Module mclr spent 1 second ---

.##################.
.# Happy landing! #.
.##################.

    Timing: Wall=12.90 User=11.61 System=1.25
