[Molden Format]
[N_Atoms]
                   10
[Atoms] (AU)
C1          1      6           2.29938715     -1.36449143      0.00000000
C1          2      6          -2.29938715     -1.36449143      0.00000000
C1          3      6           2.29938715      1.36449143      0.00000000
C1          4      6          -2.29938715      1.36449143      0.00000000
C2          5      6           0.00000000     -2.57816116      0.00000000
C2          6      6           0.00000000      2.57816116      0.00000000
H3          7      1           4.07100245      2.35373806      0.00000000
H3          8      1          -4.07100245      2.35373806      0.00000000
H3          9      1           4.07100245     -2.35373806      0.00000000
H3         10      1          -4.07100245     -2.35373806      0.00000000
[Charge] (Mulliken)
  -1.0433719960007508     
  -1.0433719960007508     
  -1.0433719960007508     
  -1.0433719960007508     
   6.3068246149638796E-002
   6.3068246149638796E-002
  0.98030374985017499     
  0.98030374985017499     
  0.98030374985017499     
  0.98030374985017499     
[GTO] (AU)
   1
   s   6
  3.047524880E+03  1.834737132E-03
  4.573695180E+02  1.403732281E-02
  1.039486850E+02  6.884262227E-02
  2.921015530E+01  2.321844432E-01
  9.286662960E+00  4.679413484E-01
  3.163926960E+00  3.623119853E-01
   s   3
  7.868272350E+00 -1.193324198E-01
  1.881288540E+00 -1.608541517E-01
  5.442492580E-01  1.143456438E+00
   s   1
  1.687144782E-01  1.000000000E+00
   p   3
  7.868272350E+00  6.899906659E-02
  1.881288540E+00  3.164239610E-01
  5.442492580E-01  7.443082909E-01
   p   1
  1.687144782E-01  1.000000000E+00
   d   1
  8.000000000E-01  1.000000000E+00
 
   2
   s   6
  3.047524880E+03  1.834737132E-03
  4.573695180E+02  1.403732281E-02
  1.039486850E+02  6.884262227E-02
  2.921015530E+01  2.321844432E-01
  9.286662960E+00  4.679413484E-01
  3.163926960E+00  3.623119853E-01
   s   3
  7.868272350E+00 -1.193324198E-01
  1.881288540E+00 -1.608541517E-01
  5.442492580E-01  1.143456438E+00
   s   1
  1.687144782E-01  1.000000000E+00
   p   3
  7.868272350E+00  6.899906659E-02
  1.881288540E+00  3.164239610E-01
  5.442492580E-01  7.443082909E-01
   p   1
  1.687144782E-01  1.000000000E+00
   d   1
  8.000000000E-01  1.000000000E+00
 
   3
   s   6
  3.047524880E+03  1.834737132E-03
  4.573695180E+02  1.403732281E-02
  1.039486850E+02  6.884262227E-02
  2.921015530E+01  2.321844432E-01
  9.286662960E+00  4.679413484E-01
  3.163926960E+00  3.623119853E-01
   s   3
  7.868272350E+00 -1.193324198E-01
  1.881288540E+00 -1.608541517E-01
  5.442492580E-01  1.143456438E+00
   s   1
  1.687144782E-01  1.000000000E+00
   p   3
  7.868272350E+00  6.899906659E-02
  1.881288540E+00  3.164239610E-01
  5.442492580E-01  7.443082909E-01
   p   1
  1.687144782E-01  1.000000000E+00
   d   1
  8.000000000E-01  1.000000000E+00
 
   4
   s   6
  3.047524880E+03  1.834737132E-03
  4.573695180E+02  1.403732281E-02
  1.039486850E+02  6.884262227E-02
  2.921015530E+01  2.321844432E-01
  9.286662960E+00  4.679413484E-01
  3.163926960E+00  3.623119853E-01
   s   3
  7.868272350E+00 -1.193324198E-01
  1.881288540E+00 -1.608541517E-01
  5.442492580E-01  1.143456438E+00
   s   1
  1.687144782E-01  1.000000000E+00
   p   3
  7.868272350E+00  6.899906659E-02
  1.881288540E+00  3.164239610E-01
  5.442492580E-01  7.443082909E-01
   p   1
  1.687144782E-01  1.000000000E+00
   d   1
  8.000000000E-01  1.000000000E+00
 
   5
   s   6
  3.047524880E+03  1.834737132E-03
  4.573695180E+02  1.403732281E-02
  1.039486850E+02  6.884262227E-02
  2.921015530E+01  2.321844432E-01
  9.286662960E+00  4.679413484E-01
  3.163926960E+00  3.623119853E-01
   s   3
  7.868272350E+00 -1.193324198E-01
  1.881288540E+00 -1.608541517E-01
  5.442492580E-01  1.143456438E+00
   s   1
  1.687144782E-01  1.000000000E+00
   p   3
  7.868272350E+00  6.899906659E-02
  1.881288540E+00  3.164239610E-01
  5.442492580E-01  7.443082909E-01
   p   1
  1.687144782E-01  1.000000000E+00
   d   1
  8.000000000E-01  1.000000000E+00
 
   6
   s   6
  3.047524880E+03  1.834737132E-03
  4.573695180E+02  1.403732281E-02
  1.039486850E+02  6.884262227E-02
  2.921015530E+01  2.321844432E-01
  9.286662960E+00  4.679413484E-01
  3.163926960E+00  3.623119853E-01
   s   3
  7.868272350E+00 -1.193324198E-01
  1.881288540E+00 -1.608541517E-01
  5.442492580E-01  1.143456438E+00
   s   1
  1.687144782E-01  1.000000000E+00
   p   3
  7.868272350E+00  6.899906659E-02
  1.881288540E+00  3.164239610E-01
  5.442492580E-01  7.443082909E-01
   p   1
  1.687144782E-01  1.000000000E+00
   d   1
  8.000000000E-01  1.000000000E+00
 
   7
   s   3
  1.873113696E+01  3.349460434E-02
  2.825394365E+00  2.347269535E-01
  6.401216923E-01  8.137573261E-01
   s   1
  1.612777588E-01  1.000000000E+00
 
   8
   s   3
  1.873113696E+01  3.349460434E-02
  2.825394365E+00  2.347269535E-01
  6.401216923E-01  8.137573261E-01
   s   1
  1.612777588E-01  1.000000000E+00
 
   9
   s   3
  1.873113696E+01  3.349460434E-02
  2.825394365E+00  2.347269535E-01
  6.401216923E-01  8.137573261E-01
   s   1
  1.612777588E-01  1.000000000E+00
 
  10
   s   3
  1.873113696E+01  3.349460434E-02
  2.825394365E+00  2.347269535E-01
  6.401216923E-01  8.137573261E-01
   s   1
  1.612777588E-01  1.000000000E+00
 
[MO]
Sym=     1ag 
Ene=   -11.2700
Spin= Alpha
Occup=    2.00000
   1         0.49517934
   2         0.01342436
   3        -0.00422674
   4         0.00003929
   5        -0.00001452
   6         0.00000000
   7         0.00022704
   8         0.00038901
   9         0.00000000
  10        -0.00083845
  11        -0.00114578
  12        -0.00121270
  13         0.00000148
  14         0.00000000
  15         0.00000000
  16         0.49517934
  17         0.01342436
  18        -0.00422674
  19        -0.00003929
  20        -0.00001452
  21         0.00000000
  22        -0.00022704
  23         0.00038901
  24         0.00000000
  25        -0.00083845
  26        -0.00114578
  27        -0.00121270
  28        -0.00000148
  29         0.00000000
  30         0.00000000
  31         0.49517934
  32         0.01342436
  33        -0.00422674
  34         0.00003929
  35         0.00001452
  36         0.00000000
  37         0.00022704
  38        -0.00038901
  39         0.00000000
  40        -0.00083845
  41        -0.00114578
  42        -0.00121270
  43        -0.00000148
  44         0.00000000
  45         0.00000000
  46         0.49517934
  47         0.01342436
  48        -0.00422674
  49        -0.00003929
  50         0.00001452
  51         0.00000000
  52        -0.00022704
  53        -0.00038901
  54         0.00000000
  55        -0.00083845
  56        -0.00114578
  57        -0.00121270
  58         0.00000148
  59         0.00000000
  60         0.00000000
  61         0.07092331
  62         0.00158590
  63         0.00289382
  64         0.00000000
  65        -0.00010049
  66         0.00000000
  67         0.00000000
  68         0.00069812
  69         0.00000000
  70        -0.00039638
  71        -0.00034929
  72        -0.00028067
  73         0.00000000
  74         0.00000000
  75         0.00000000
  76         0.07092331
  77         0.00158590
  78         0.00289382
  79         0.00000000
  80         0.00010049
  81         0.00000000
  82         0.00000000
  83        -0.00069812
  84         0.00000000
  85        -0.00039638
  86        -0.00034929
  87        -0.00028067
  88         0.00000000
  89         0.00000000
  90         0.00000000
  91        -0.00014791
  92         0.00102088
  93        -0.00014791
  94         0.00102088
  95        -0.00014791
  96         0.00102088
  97        -0.00014791
  98         0.00102088
Sym=     2ag 
Ene=   -11.2600
Spin= Alpha
Occup=    2.00000
   1        -0.05054664
   2        -0.00165964
   3         0.00364795
   4         0.00019710
   5         0.00005545
   6         0.00000000
   7        -0.00182819
   8        -0.00007282
   9         0.00000000
  10        -0.00016673
  11        -0.00010436
  12        -0.00000793
  13        -0.00017221
  14         0.00000000
  15         0.00000000
  16        -0.05054664
  17        -0.00165964
  18         0.00364795
  19        -0.00019710
  20         0.00005545
  21         0.00000000
  22         0.00182819
  23        -0.00007282
  24         0.00000000
  25        -0.00016673
  26        -0.00010436
  27        -0.00000793
  28         0.00017221
  29         0.00000000
  30         0.00000000
  31        -0.05054664
  32        -0.00165964
  33         0.00364795
  34         0.00019710
  35        -0.00005545
  36         0.00000000
  37        -0.00182819
  38         0.00007282
  39         0.00000000
  40        -0.00016673
  41        -0.00010436
  42        -0.00000793
  43         0.00017221
  44         0.00000000
  45         0.00000000
  46        -0.05054664
  47        -0.00165964
  48         0.00364795
  49        -0.00019710
  50        -0.00005545
  51         0.00000000
  52         0.00182819
  53         0.00007282
  54         0.00000000
  55        -0.00016673
  56        -0.00010436
  57        -0.00000793
  58        -0.00017221
  59         0.00000000
  60         0.00000000
  61         0.70057394
  62         0.01879653
  63        -0.01000524
  64         0.00000000
  65         0.00062371
  66         0.00000000
  67         0.00000000
  68        -0.00260389
  69         0.00000000
  70        -0.00062515
  71        -0.00144204
  72        -0.00145827
  73         0.00000000
  74         0.00000000
  75         0.00000000
  76         0.70057394
  77         0.01879653
  78        -0.01000524
  79         0.00000000
  80        -0.00062371
  81         0.00000000
  82         0.00000000
  83         0.00260389
  84         0.00000000
  85        -0.00062515
  86        -0.00144204
  87        -0.00145827
  88         0.00000000
  89         0.00000000
  90         0.00000000
  91        -0.00000050
  92         0.00033331
  93        -0.00000050
  94         0.00033331
  95        -0.00000050
  96         0.00033331
  97        -0.00000050
  98         0.00033331
Sym=     3ag 
Ene=    -1.1558
Spin= Alpha
Occup=    2.00000
   1        -0.09350971
   2         0.18054545
   3         0.11496846
   4        -0.05223357
   5         0.03280409
   6         0.00000000
   7        -0.00460600
   8         0.00555548
   9         0.00000000
  10         0.00716276
  11         0.00716695
  12        -0.00859579
  13         0.00059496
  14         0.00000000
  15         0.00000000
  16        -0.09350971
  17         0.18054545
  18         0.11496846
  19         0.05223357
  20         0.03280409
  21         0.00000000
  22         0.00460600
  23         0.00555548
  24         0.00000000
  25         0.00716276
  26         0.00716695
  27        -0.00859579
  28        -0.00059496
  29         0.00000000
  30         0.00000000
  31        -0.09350971
  32         0.18054545
  33         0.11496846
  34        -0.05223357
  35        -0.03280409
  36         0.00000000
  37        -0.00460600
  38        -0.00555548
  39         0.00000000
  40         0.00716276
  41         0.00716695
  42        -0.00859579
  43        -0.00059496
  44         0.00000000
  45         0.00000000
  46        -0.09350971
  47         0.18054545
  48         0.11496846
  49         0.05223357
  50        -0.03280409
  51         0.00000000
  52         0.00460600
  53        -0.00555548
  54         0.00000000
  55         0.00716276
  56         0.00716695
  57        -0.00859579
  58         0.00059496
  59         0.00000000
  60         0.00000000
  61        -0.08931663
  62         0.17276883
  63         0.10234771
  64         0.00000000
  65         0.07099359
  66         0.00000000
  67         0.00000000
  68         0.01079397
  69         0.00000000
  70         0.00900538
  71         0.00032154
  72        -0.00833051
  73         0.00000000
  74         0.00000000
  75         0.00000000
  76        -0.08931663
  77         0.17276883
  78         0.10234771
  79         0.00000000
  80        -0.07099359
  81         0.00000000
  82         0.00000000
  83        -0.01079397
  84         0.00000000
  85         0.00900538
  86         0.00032154
  87        -0.00833051
  88         0.00000000
  89         0.00000000
  90         0.00000000
  91         0.03678472
  92         0.00318669
  93         0.03678472
  94         0.00318669
  95         0.03678472
  96         0.00318669
  97         0.03678472
  98         0.00318669
Sym=     4ag 
Ene=    -0.7944
Spin= Alpha
Occup=    2.00000
   1        -0.04380965
   2         0.08892277
   3         0.08333823
   4         0.18875663
   5         0.08064545
   6         0.00000000
   7         0.06939886
   8         0.02029002
   9         0.00000000
  10        -0.00018103
  11         0.00831036
  12        -0.00330104
  13        -0.00812015
  14         0.00000000
  15         0.00000000
  16        -0.04380965
  17         0.08892277
  18         0.08333823
  19        -0.18875663
  20         0.08064545
  21         0.00000000
  22        -0.06939886
  23         0.02029002
  24         0.00000000
  25        -0.00018103
  26         0.00831036
  27        -0.00330104
  28         0.00812015
  29         0.00000000
  30         0.00000000
  31        -0.04380965
  32         0.08892277
  33         0.08333823
  34         0.18875663
  35        -0.08064545
  36         0.00000000
  37         0.06939886
  38        -0.02029002
  39         0.00000000
  40        -0.00018103
  41         0.00831036
  42        -0.00330104
  43         0.00812015
  44         0.00000000
  45         0.00000000
  46        -0.04380965
  47         0.08892277
  48         0.08333823
  49        -0.18875663
  50        -0.08064545
  51         0.00000000
  52        -0.06939886
  53        -0.02029002
  54         0.00000000
  55        -0.00018103
  56         0.00831036
  57        -0.00330104
  58        -0.00812015
  59         0.00000000
  60         0.00000000
  61         0.08873074
  62        -0.18182342
  63        -0.13027194
  64         0.00000000
  65        -0.04026800
  66         0.00000000
  67         0.00000000
  68         0.00879262
  69         0.00000000
  70        -0.00435305
  71         0.00149371
  72         0.00543843
  73         0.00000000
  74         0.00000000
  75         0.00000000
  76         0.08873074
  77        -0.18182342
  78        -0.13027194
  79         0.00000000
  80         0.04026800
  81         0.00000000
  82         0.00000000
  83        -0.00879262
  84         0.00000000
  85        -0.00435305
  86         0.00149371
  87         0.00543843
  88         0.00000000
  89         0.00000000
  90         0.00000000
  91         0.10109418
  92         0.04437467
  93         0.10109418
  94         0.04437467
  95         0.10109418
  96         0.04437467
  97         0.10109418
  98         0.04437467
Sym=     5ag 
Ene=    -0.6534
Spin= Alpha
Occup=    2.00000
   1        -0.00891590
   2         0.02285006
   3        -0.00194585
   4        -0.08088322
   5         0.23330380
   6         0.00000000
   7        -0.03804228
   8         0.09205830
   9         0.00000000
  10        -0.01027972
  11         0.00732621
  12        -0.00011325
  13        -0.00133497
  14         0.00000000
  15         0.00000000
  16        -0.00891590
  17         0.02285006
  18        -0.00194585
  19         0.08088322
  20         0.23330380
  21         0.00000000
  22         0.03804228
  23         0.09205830
  24         0.00000000
  25        -0.01027972
  26         0.00732621
  27        -0.00011325
  28         0.00133497
  29         0.00000000
  30         0.00000000
  31        -0.00891590
  32         0.02285006
  33        -0.00194585
  34        -0.08088322
  35        -0.23330380
  36         0.00000000
  37        -0.03804228
  38        -0.09205830
  39         0.00000000
  40        -0.01027972
  41         0.00732621
  42        -0.00011325
  43         0.00133497
  44         0.00000000
  45         0.00000000
  46        -0.00891590
  47         0.02285006
  48        -0.00194585
  49         0.08088322
  50        -0.23330380
  51         0.00000000
  52         0.03804228
  53        -0.09205830
  54         0.00000000
  55        -0.01027972
  56         0.00732621
  57        -0.00011325
  58        -0.00133497
  59         0.00000000
  60         0.00000000
  61         0.05714760
  62        -0.11750388
  63        -0.14038143
  64         0.00000000
  65         0.10953090
  66         0.00000000
  67         0.00000000
  68         0.05207263
  69         0.00000000
  70        -0.01216351
  71         0.01488908
  72         0.00079333
  73         0.00000000
  74         0.00000000
  75         0.00000000
  76         0.05714760
  77        -0.11750388
  78        -0.14038143
  79         0.00000000
  80        -0.10953090
  81         0.00000000
  82         0.00000000
  83        -0.05207263
  84         0.00000000
  85        -0.01216351
  86         0.01488908
  87         0.00079333
  88         0.00000000
  89         0.00000000
  90         0.00000000
  91        -0.09515706
  92        -0.05882171
  93        -0.09515706
  94        -0.05882171
  95        -0.09515706
  96        -0.05882171
  97        -0.09515706
  98        -0.05882171
Sym=     6ag 
Ene=    -0.0350
Spin= Alpha
Occup=    0.00000
   1         0.00315552
   2         0.00866775
   3        -0.11408815
   4        -0.05908689
   5        -0.16439243
   6         0.00000000
   7        -0.01011611
   8        -0.09168599
   9         0.00000000
  10         0.01818307
  11        -0.01590752
  12         0.00071023
  13        -0.01687919
  14         0.00000000
  15         0.00000000
  16         0.00315552
  17         0.00866775
  18        -0.11408815
  19         0.05908689
  20        -0.16439243
  21         0.00000000
  22         0.01011611
  23        -0.09168599
  24         0.00000000
  25         0.01818307
  26        -0.01590752
  27         0.00071023
  28         0.01687919
  29         0.00000000
  30         0.00000000
  31         0.00315552
  32         0.00866775
  33        -0.11408815
  34        -0.05908689
  35         0.16439243
  36         0.00000000
  37        -0.01011611
  38         0.09168599
  39         0.00000000
  40         0.01818307
  41        -0.01590752
  42         0.00071023
  43         0.01687919
  44         0.00000000
  45         0.00000000
  46         0.00315552
  47         0.00866775
  48        -0.11408815
  49         0.05908689
  50         0.16439243
  51         0.00000000
  52         0.01011611
  53         0.09168599
  54         0.00000000
  55         0.01818307
  56        -0.01590752
  57         0.00071023
  58        -0.01687919
  59         0.00000000
  60         0.00000000
  61         0.04310093
  62        -0.06532239
  63        -0.21267858
  64         0.00000000
  65         0.31658047
  66         0.00000000
  67         0.00000000
  68         0.37841669
  69         0.00000000
  70         0.01070174
  71         0.00450191
  72        -0.00407496
  73         0.00000000
  74         0.00000000
  75         0.00000000
  76         0.04310093
  77        -0.06532239
  78        -0.21267858
  79         0.00000000
  80        -0.31658047
  81         0.00000000
  82         0.00000000
  83        -0.37841669
  84         0.00000000
  85         0.01070174
  86         0.00450191
  87        -0.00407496
  88         0.00000000
  89         0.00000000
  90         0.00000000
  91         0.07806106
  92         0.14922388
  93         0.07806106
  94         0.14922388
  95         0.07806106
  96         0.14922388
  97         0.07806106
  98         0.14922388
Sym=     7ag 
Ene=     0.2579
Spin= Alpha
Occup=    0.00000
   1         0.05089055
   2        -0.08006688
   3        -0.74096494
   4        -0.07954475
   5         0.11108976
   6         0.00000000
   7        -0.41523281
   8         0.36715069
   9         0.00000000
  10         0.00779891
  11        -0.00265709
  12        -0.00055426
  13        -0.00396772
  14         0.00000000
  15         0.00000000
  16         0.05089055
  17        -0.08006688
  18        -0.74096494
  19         0.07954475
  20         0.11108976
  21         0.00000000
  22         0.41523281
  23         0.36715069
  24         0.00000000
  25         0.00779891
  26        -0.00265709
  27        -0.00055426
  28         0.00396772
  29         0.00000000
  30         0.00000000
  31         0.05089055
  32        -0.08006688
  33        -0.74096494
  34        -0.07954475
  35        -0.11108976
  36         0.00000000
  37        -0.41523281
  38        -0.36715069
  39         0.00000000
  40         0.00779891
  41        -0.00265709
  42        -0.00055426
  43         0.00396772
  44         0.00000000
  45         0.00000000
  46         0.05089055
  47        -0.08006688
  48        -0.74096494
  49         0.07954475
  50        -0.11108976
  51         0.00000000
  52         0.41523281
  53        -0.36715069
  54         0.00000000
  55         0.00779891
  56        -0.00265709
  57        -0.00055426
  58        -0.00396772
  59         0.00000000
  60         0.00000000
  61        -0.01279641
  62         0.01794092
  63         0.05808685
  64         0.00000000
  65        -0.00603167
  66         0.00000000
  67         0.00000000
  68        -0.32031742
  69         0.00000000
  70        -0.01967035
  71         0.01125124
  72         0.00199396
  73         0.00000000
  74         0.00000000
  75         0.00000000
  76        -0.01279641
  77         0.01794092
  78         0.05808685
  79         0.00000000
  80         0.00603167
  81         0.00000000
  82         0.00000000
  83         0.32031742
  84         0.00000000
  85        -0.01967035
  86         0.01125124
  87         0.00199396
  88         0.00000000
  89         0.00000000
  90         0.00000000
  91         0.01007468
  92         1.06505903
  93         0.01007468
  94         1.06505903
  95         0.01007468
  96         1.06505903
  97         0.01007468
  98         1.06505903
Sym=     8ag 
Ene=     0.4225
Spin= Alpha
Occup=    0.00000
   1         0.04447750
   2        -0.01608472
   3        -1.23448264
   4         0.05725676
   5        -0.02280252
   6         0.00000000
   7         1.07915007
   8         0.36668132
   9         0.00000000
  10         0.01163739
  11        -0.01804469
  12         0.00484117
  13         0.01590338
  14         0.00000000
  15         0.00000000
  16         0.04447750
  17        -0.01608472
  18        -1.23448264
  19        -0.05725676
  20        -0.02280252
  21         0.00000000
  22        -1.07915007
  23         0.36668132
  24         0.00000000
  25         0.01163739
  26        -0.01804469
  27         0.00484117
  28        -0.01590338
  29         0.00000000
  30         0.00000000
  31         0.04447750
  32        -0.01608472
  33        -1.23448264
  34         0.05725676
  35         0.02280252
  36         0.00000000
  37         1.07915007
  38        -0.36668132
  39         0.00000000
  40         0.01163739
  41        -0.01804469
  42         0.00484117
  43        -0.01590338
  44         0.00000000
  45         0.00000000
  46         0.04447750
  47        -0.01608472
  48        -1.23448264
  49        -0.05725676
  50         0.02280252
  51         0.00000000
  52        -1.07915007
  53        -0.36668132
  54         0.00000000
  55         0.01163739
  56        -0.01804469
  57         0.00484117
  58         0.01590338
  59         0.00000000
  60         0.00000000
  61        -0.10721949
  62         0.11212466
  63         2.88210660
  64         0.00000000
  65         0.05159847
  66         0.00000000
  67         0.00000000
  68         1.11258991
  69         0.00000000
  70         0.01688650
  71         0.00014236
  72        -0.00221052
  73         0.00000000
  74         0.00000000
  75         0.00000000
  76        -0.10721949
  77         0.11212466
  78         2.88210660
  79         0.00000000
  80        -0.05159847
  81         0.00000000
  82         0.00000000
  83        -1.11258991
  84         0.00000000
  85         0.01688650
  86         0.00014236
  87        -0.00221052
  88         0.00000000
  89         0.00000000
  90         0.00000000
  91        -0.01429980
  92        -0.30629880
  93        -0.01429980
  94        -0.30629880
  95        -0.01429980
  96        -0.30629880
  97        -0.01429980
  98        -0.30629880
Sym=     9ag 
Ene=     0.7142
Spin= Alpha
Occup=    0.00000
   1        -0.00474344
   2         0.45294738
   3        -0.42175103
   4        -0.25809824
   5         0.06348731
   6         0.00000000
   7         0.12720286
   8        -0.05610517
   9         0.00000000
  10         0.00068496
  11         0.07533619
  12         0.00828359
  13         0.03211973
  14         0.00000000
  15         0.00000000
  16        -0.00474344
  17         0.45294738
  18        -0.42175103
  19         0.25809824
  20         0.06348731
  21         0.00000000
  22        -0.12720286
  23        -0.05610517
  24         0.00000000
  25         0.00068496
  26         0.07533619
  27         0.00828359
  28        -0.03211973
  29         0.00000000
  30         0.00000000
  31        -0.00474344
  32         0.45294738
  33        -0.42175103
  34        -0.25809824
  35        -0.06348731
  36         0.00000000
  37         0.12720286
  38         0.05610517
  39         0.00000000
  40         0.00068496
  41         0.07533619
  42         0.00828359
  43        -0.03211973
  44         0.00000000
  45         0.00000000
  46        -0.00474344
  47         0.45294738
  48        -0.42175103
  49         0.25809824
  50        -0.06348731
  51         0.00000000
  52        -0.12720286
  53         0.05610517
  54         0.00000000
  55         0.00068496
  56         0.07533619
  57         0.00828359
  58         0.03211973
  59         0.00000000
  60         0.00000000
  61         0.02073975
  62         0.45589647
  63        -0.47824737
  64         0.00000000
  65        -0.01736541
  66         0.00000000
  67         0.00000000
  68        -0.01106504
  69         0.00000000
  70         0.12225760
  71         0.01329687
  72        -0.00838245
  73         0.00000000
  74         0.00000000
  75         0.00000000
  76         0.02073975
  77         0.45589647
  78        -0.47824737
  79         0.00000000
  80         0.01736541
  81         0.00000000
  82         0.00000000
  83         0.01106504
  84         0.00000000
  85         0.12225760
  86         0.01329687
  87        -0.00838245
  88         0.00000000
  89         0.00000000
  90         0.00000000
  91        -0.09820317
  92         0.24230051
  93        -0.09820317
  94         0.24230051
  95        -0.09820317
  96         0.24230051
  97        -0.09820317
  98         0.24230051
Sym=    10ag 
Ene=     0.7924
Spin= Alpha
Occup=    0.00000
   1         0.03691001
   2         0.25082118
   3        -0.55312888
   4         0.21660142
   5         0.21224029
   6         0.00000000
   7        -0.21708986
   8        -0.17870677
   9         0.00000000
  10         0.07323067
  11         0.05771558
  12        -0.03382722
  13        -0.02485012
  14         0.00000000
  15         0.00000000
  16         0.03691001
  17         0.25082118
  18        -0.55312888
  19        -0.21660142
  20         0.21224029
  21         0.00000000
  22         0.21708986
  23        -0.17870677
  24         0.00000000
  25         0.07323067
  26         0.05771558
  27        -0.03382722
  28         0.02485012
  29         0.00000000
  30         0.00000000
  31         0.03691001
  32         0.25082118
  33        -0.55312888
  34         0.21660142
  35        -0.21224029
  36         0.00000000
  37        -0.21708986
  38         0.17870677
  39         0.00000000
  40         0.07323067
  41         0.05771558
  42        -0.03382722
  43         0.02485012
  44         0.00000000
  45         0.00000000
  46         0.03691001
  47         0.25082118
  48        -0.55312888
  49        -0.21660142
  50        -0.21224029
  51         0.00000000
  52         0.21708986
  53         0.17870677
  54         0.00000000
  55         0.07323067
  56         0.05771558
  57        -0.03382722
  58        -0.02485012
  59         0.00000000
  60         0.00000000
  61        -0.04940386
  62         0.27978888
  63        -0.02637057
  64         0.00000000
  65        -0.15031913
  66         0.00000000
  67         0.00000000
  68         0.35485033
  69         0.00000000
  70        -0.05060476
  71         0.05007037
  72         0.02341253
  73         0.00000000
  74         0.00000000
  75         0.00000000
  76        -0.04940386
  77         0.27978888
  78        -0.02637057
  79         0.00000000
  80         0.15031913
  81         0.00000000
  82         0.00000000
  83        -0.35485033
  84         0.00000000
  85        -0.05060476
  86         0.05007037
  87         0.02341253
  88         0.00000000
  89         0.00000000
  90         0.00000000
  91         0.33298576
  92         0.02780116
  93         0.33298576
  94         0.02780116
  95         0.33298576
  96         0.02780116
  97         0.33298576
  98         0.02780116
Sym=    11ag 
Ene=     0.8397
Spin= Alpha
Occup=    0.00000
   1        -0.01043207
   2        -0.11584628
   3        -0.00506699
   4        -0.13232816
   5        -0.00428989
   6         0.00000000
   7         0.35185027
   8        -0.25161332
   9         0.00000000
  10        -0.09262998
  11         0.00775038
  12         0.02835321
  13        -0.03517610
  14         0.00000000
  15         0.00000000
  16        -0.01043207
  17        -0.11584628
  18        -0.00506699
  19         0.13232816
  20        -0.00428989
  21         0.00000000
  22        -0.35185027