   This run of MOLCAS is using the pymolcas driver

                             OPE
                             OPE          NMOL  CASOP  ENMOLC A   SO
                 OPE        NMOLC        AS  OP EN  MO LC     AS  OP
                OPENM       OL CA        SO  PE NM  OL CA     SOP EN
                OP EN      MO   LC       AS  OP ENMOL  CASO   PENMOL
                OP  EN     MO   LC       AS  OP EN     MO     LC ASO
               OP   E  NMOL  C  AS       OP  EN MO     LC     AS  OP
               OP  E   NMO   LC AS        OPEN  MO     LCASOP EN   M
               O  PEN   MO  LCA  SO
            OPE   NMO   L   CAS    OP
        OPENMOL  CASOP     ENMOL   CASOPE
     OPENMOLCA   SOPENMOLCASOPEN   MOLCASOPE
    OPENMOLCAS   OP           EN   MOL    CAS
    OPENMOLCAS       OP  ENM        O     LCA
    OPENMOLCAS    OPEN  MOLCASO     P  E  NMO
    OPENMOLCAS     OP               E  N  MOL
    OPENMOLCA   SO           PENM   O  L  CAS    OPEN    MO    LCAS
    OPENMOLCA   SOP           ENM   O  L  CAS   OP  EN  MOLC  AS   O
    OPENMOLCA   SOPE           NM      O  LCA   S      OP  EN MO
    OPENMOLC                AS         O  PEN   M      OL  CA  SOPE
    OPENMO        LCASOPE  NMOL        C  ASO   P      ENMOLC     AS
    OPE     NMO      LCA  SO     P     E   NM   OL  CA SO  PE N   MO
          OPENMOLCA            SOPE   NMO        LCAS  O    P  ENMO
     OPENMOLCASOPENMOLCASOPENMOLCASOPENMOLCA
        OPENMOLCASOPENMOLCASOPENMOLCASOPE
            OPENMOLCASOPENMOLCASOPENM
               OPENMOLCASOPENMOLCA        version: 24.02
                   OPENMOLCASO
                       OPE                tag: 428-g03afa2e9a

 OpenMolcas is free software; you can redistribute it and/or modify it
 under the terms of the GNU Lesser General Public License version 2.1.
 OpenMolcas is distributed in the hope that it will be useful, but it
 is provided "as is" and without any express or implied warranties.
 For more details see the full text of the license in the file
 LICENSE or in <http://www.gnu.org/licenses/>.

                 Copyright (C) The OpenMolcas Authors
           For the author list and the recommended citation,
                   consult the file CONTRIBUTORS.md

           *************************************************
           * pymolcas version py2.28                       *
           *   build c4a6d18ded8cb6cad61d2372a9abd97c      *
           *   (after the EMIL interpreter by V. Veryazov) *
           *************************************************

configuration info
------------------
Host name: DESKTOP-ET1S6F4 (Linux)
C Compiler ID: GNU
C flags: -std=gnu99 -fopenmp
Fortran Compiler ID: GNU
Fortran flags: -fno-aggressive-loop-optimizations -cpp -fdefault-integer-8 -fopenmp
Definitions: _WARNING_WORKAROUND_;_MOLCAS_;_I8_;_LINUX_
Parallel: OFF (GA=OFF)


   ----------------------------------------------------------------------
  |
  |           Project: product
  |    Submitted from: /home/kenya/molcas_test/exercise_1
  |      Scratch area: /tmp/product
  |   Save outputs to: /home/kenya/molcas_test/exercise_1
  |            Molcas: /home/kenya/OpenMolcas/builds/gnu_dev_omp
  |
  | Scratch area is NOT empty
  |
  |    MOLCAS_DRIVER = /home/kenya/OpenMolcas/builds/gnu_dev_omp/pymolcas
  |    MOLCAS_NPROCS = 1
  |    MOLCAS_SOURCE = /home/kenya/OpenMolcas
  | MOLCAS_STRUCTURE = 0
  |
   ----------------------------------------------------------------------

++ ---------   Input file   ---------

&GATEWAY
Coord = product.Opt.xyz
  Basis = 6-31G*
  Group = Full
  NoCD

>>> COPY $CurrDir/product.RasOrb INPORB

>>> DO WHILE

  &SEWARD

  &RASSCF
    Inactive = 4 3 4 3 0 0 0 0
    RAS2   = 2 1 2 1 2 1 2 1
    nActEl = 12 0 0
    LUMORB

  &ALASKA

  &SLAPAF

>>> END DO

&MCKINLEY

-- ----------------------------------

*** symbolic link created: INPORB -> product.RasOrb
--- Start Module: gateway at Mon Jul  8 13:19:33 2024 ---

()()()()()()()()()()()()()()()()()()()()()()()()()()()()()()()()()()()()()()()()()()()()()()()()()()

                                              &GATEWAY

                                   only a single process is used
                       available to each process: 2.0 GB of memory, 1 thread
                                            pid: 495131
()()()()()()()()()()()()()()()()()()()()()()()()()()()()()()()()()()()()()()()()()()()()()()()()()()

      Found SYMMETRY generators: x y z

++    Symmetry information:
      ---------------------

                    --- Group Generators ---
                    Reflection in the yz-plane  
                    Reflection in the xz-plane  
                    Reflection in the xy-plane  

                    Character Table for D2h

                             E   s(yz) s(xz) C2(z) s(xy) C2(y) C2(x)   i  
                    ag       1     1     1     1     1     1     1     1  
                    b3u      1    -1     1    -1     1    -1     1    -1  x
                    b2u      1     1    -1    -1     1     1    -1    -1  y
                    b1g      1    -1    -1     1     1    -1    -1     1  xy, Rz
                    b1u      1     1     1     1    -1    -1    -1    -1  z
                    b2g      1    -1     1    -1    -1     1    -1     1  xz, Ry
                    b3g      1     1    -1    -1    -1    -1     1     1  yz, Rx
                    au       1    -1    -1     1    -1     1     1    -1  I
--


++    Basis set information:
      ----------------------


      Basis set label: C.6-31G**....

      Electronic valence basis set:
      ------------------
      Associated Effective Charge   6.000000 au
      Associated Actual Charge      6.000000 au
      Nuclear Model: Point charge

      Shell  nPrim  nBasis  Cartesian Spherical Contaminant
         s      10       3        X                  
         p       4       2        X                  
         d       1       1        X                  


      Basis set label: H.6-31G....

      Electronic valence basis set:
      ------------------
      Associated Effective Charge   1.000000 au
      Associated Actual Charge      1.000000 au
      Nuclear Model: Point charge

      Shell  nPrim  nBasis  Cartesian Spherical Contaminant
         s       4       2        X                  
--


++    Molecular structure info:
      -------------------------

                    ************************************************ 
                    **** Cartesian Coordinates / Bohr, Angstrom **** 
                    ************************************************ 

     Center  Label                x              y              z                     x              y              z
        1      C1               2.240592      -1.406685       0.000000              1.185670      -0.744386       0.000000
        2      C1              -2.240592      -1.406685       0.000000             -1.185670      -0.744386       0.000000
        3      C1               2.240592       1.406685       0.000000              1.185670       0.744386       0.000000
        4      C1              -2.240592       1.406685       0.000000             -1.185670       0.744386       0.000000
        5      C2               0.000000      -2.535757       0.000000              0.000000      -1.341865       0.000000
        6      C2               0.000000       2.535757       0.000000              0.000000       1.341865       0.000000
        7      H3               4.089909       2.234122       0.000000              2.164287       1.182247       0.000000
        8      H3              -4.089909       2.234122       0.000000             -2.164287       1.182247       0.000000
        9      H3               4.089909      -2.234122       0.000000              2.164287      -1.182247       0.000000
       10      H3              -4.089909      -2.234122       0.000000             -2.164287      -1.182247       0.000000

                    *************************************** 
                    *    InterNuclear Distances / Bohr    * 
                    *************************************** 

               1 C1            2 C1            3 C1            4 C1            5 C2            6 C2    
    1 C1       0.000000
    2 C1       4.481185        0.000000
    3 C1       2.813370        5.291131        0.000000
    4 C1       5.291131        2.813370        4.481185        0.000000
    5 C2       2.508995        2.508995        4.534656        4.534656        0.000000
    6 C2       4.534656        4.534656        2.508995        2.508995        5.071513        0.000000
    7 H3       4.083559        7.302789        2.025988        6.384348        6.283240        4.101017
    8 H3       7.302789        4.083559        6.384348        2.025988        6.283240        4.101017
    9 H3       2.025988        6.384348        4.083559        7.302789        4.101017        6.283240
   10 H3       6.384348        2.025988        7.302789        4.083559        4.101017        6.283240

               7 H3            8 H3            9 H3           10 H3    
    7 H3       0.000000
    8 H3       8.179819        0.000000
    9 H3       4.468245        9.320657        0.000000
   10 H3       9.320657        4.468245        8.179819        0.000000

                    ******************************************* 
                    *    InterNuclear Distances / Angstrom    * 
                    ******************************************* 

               1 C1            2 C1            3 C1            4 C1            5 C2            6 C2    
    1 C1       0.000000
    2 C1       2.371341        0.000000
    3 C1       1.488771        2.799946        0.000000
    4 C1       2.799946        1.488771        2.371341        0.000000
    5 C2       1.327703        1.327703        2.399636        2.399636        0.000000
    6 C2       2.399636        2.399636        1.327703        1.327703        2.683729        0.000000
    7 H3       2.160926        3.864470        1.072107        3.378452        3.324947        2.170165
    8 H3       3.864470        2.160926        3.378452        1.072107        3.324947        2.170165
    9 H3       1.072107        3.378452        2.160926        3.864470        2.170165        3.324947
   10 H3       3.378452        1.072107        3.864470        2.160926        2.170165        3.324947

               7 H3            8 H3            9 H3           10 H3    
    7 H3       0.000000
    8 H3       4.328574        0.000000
    9 H3       2.364493        4.932279        0.000000
   10 H3       4.932279        2.364493        4.328574        0.000000

                    ************************************** 
                    *    Valence Bond Angles / Degree    * 
                    ************************************** 
                          Atom centers                 Phi
                      3 C1       1 C1       5 C2       116.74
                      3 C1       1 C1       9 H3       114.11
                      5 C2       1 C1       9 H3       129.15
                      4 C1       2 C1       5 C2       116.74
                      4 C1       2 C1      10 H3       114.11
                      5 C2       2 C1      10 H3       129.15
                      1 C1       3 C1       6 C2       116.74
                      1 C1       3 C1       7 H3       114.11
                      6 C2       3 C1       7 H3       129.15
                      2 C1       4 C1       6 C2       116.74
                      2 C1       4 C1       8 H3       114.11
                      6 C2       4 C1       8 H3       129.15
                      1 C1       5 C2       2 C1       126.51
                      3 C1       6 C2       4 C1       126.51

           ***************************************************************
           *              Valence Dihedral Angles / Degree               *
           ***************************************************************
                    Atom centers                       Phi1     Phi2     Theta 
           5 C2       1 C1       3 C1       6 C2        116.74   116.74    -0.00
           5 C2       1 C1       3 C1       7 H3        116.74   114.11  -180.00
           5 C2       2 C1       4 C1       6 C2        116.74   116.74    -0.00
           5 C2       2 C1       4 C1       8 H3        116.74   114.11  -180.00
           6 C2       3 C1       1 C1       9 H3        116.74   114.11  -180.00
           7 H3       3 C1       1 C1       9 H3        114.11   114.11     0.00
           1 C1       3 C1       6 C2       4 C1        116.74   126.51    -0.00
           6 C2       4 C1       2 C1      10 H3        116.74   114.11  -180.00
           8 H3       4 C1       2 C1      10 H3        114.11   114.11    -0.00
           2 C1       4 C1       6 C2       3 C1        116.74   126.51    -0.00
           2 C1       5 C2       1 C1       3 C1        126.51   116.74    -0.00
           2 C1       5 C2       1 C1       9 H3        126.51   129.15  -180.00
           1 C1       5 C2       2 C1       4 C1        126.51   116.74    -0.00
           1 C1       5 C2       2 C1      10 H3        126.51   129.15  -180.00
           4 C1       6 C2       3 C1       7 H3        126.51   129.15  -180.00
           3 C1       6 C2       4 C1       8 H3        126.51   129.15  -180.00
--


            Nuclear Potential Energy            186.86183230 au

--- Stop Module: gateway at Mon Jul  8 13:19:33 2024 /rc=_RC_ALL_IS_WELL_ ---
*** files: xmldump
    saved to directory /home/kenya/molcas_test/exercise_1

>>> COPY /home/kenya/molcas_test/exercise_1/product.RasOrb INPORB

--- Start Module: seward at Mon Jul  8 13:19:33 2024 ---

()()()()()()()()()()()()()()()()()()()()()()()()()()()()()()()()()()()()()()()()()()()()()()()()()()

                                              &SEWARD

                                   only a single process is used
                       available to each process: 2.0 GB of memory, 1 thread
                                            pid: 495135
()()()()()()()()()()()()()()()()()()()()()()()()()()()()()()()()()()()()()()()()()()()()()()()()()()

               SEWARD will generate:
                  Multipole Moment integrals up to order  2
                  Kinetic Energy integrals
                  Nuclear Attraction integrals (point charge)
                  One-Electron Hamiltonian integrals
                  Velocity integrals
                  Orbital angular momentum around ( 0.0000  0.0000  0.0000 )
                  Velocity quadrupole around ( 0.0000  0.0000  0.0000 )
                  Two-Electron Repulsion integrals

                   Integrals are discarded if absolute value <: 1.00E-14
                   Integral cutoff threshold is set to       <: 1.00E-16

                    Unitary symmetry adaptation


            Nuclear Potential Energy            186.86183230 au


      Basis set specifications :
      Symmetry species         ag   b3u  b2u  b1g  b1u  b2g  b3g  au 
      Basis functions           21   16   21   16    7    5    7    5


      Input file to MOLDEN was generated!

--- Stop Module: seward at Mon Jul  8 13:19:35 2024 /rc=_RC_ALL_IS_WELL_ ---
*** files: product.GssOrb product.guessorb.molden xmldump
    saved to directory /home/kenya/molcas_test/exercise_1
--- Module seward spent 1 second ---

--- Start Module: rasscf at Mon Jul  8 13:19:35 2024 ---

()()()()()()()()()()()()()()()()()()()()()()()()()()()()()()()()()()()()()()()()()()()()()()()()()()

                                              &RASSCF

                                   only a single process is used
                       available to each process: 2.0 GB of memory, 1 thread
                                            pid: 495167
()()()()()()()()()()()()()()()()()()()()()()()()()()()()()()()()()()()()()()()()()()()()()()()()()()

 ###############################################################################
 ###############################################################################
 ###                                                                         ###
 ###                                                                         ###
 ###    WARNING: Had to guess the spin.                                      ###
 ###                                                                         ###
 ###                                                                         ###
 ###############################################################################
 ###############################################################################
  Warning: no input and no reliable source
  for the spin multiplicity.
  Guess ISPIN=                    1

      Header of the ONEINT file:
      --------------------------
      
      Integrals generated by Gateway/Seward, Mon Jul  8 13:19:34 2024


      OrdInt status: non-squared


      Cartesian coordinates in Angstrom:
      -----------------------------------------------------
      No.  Label        X            Y            Z        
      -----------------------------------------------------
       1   C1         1.18567042  -0.74438572   0.00000000
       2   C2         0.00000000  -1.34186467   0.00000000
       3   H3         2.16428688   1.18224664   0.00000000
       4   C1        -1.18567042  -0.74438572   0.00000000
       5   C1         1.18567042   0.74438572   0.00000000
       6   C1        -1.18567042   0.74438572   0.00000000
       7   C2         0.00000000   1.34186467   0.00000000
       8   H3        -2.16428688   1.18224664   0.00000000
       9   H3         2.16428688  -1.18224664   0.00000000
      10   H3        -2.16428688  -1.18224664   0.00000000
      -----------------------------------------------------
      Nuclear repulsion energy =  186.86183230

++    Wave function specifications:
      -----------------------------

      Number of closed shell electrons          28
      Number of electrons in active shells      12
      Max number of holes in RAS1 space          0
      Max nr of electrons in RAS3 space          0
      Number of inactive orbitals               14
      Number of active orbitals                 12
      Number of secondary orbitals              72
      Spin quantum number                      0.0
      State symmetry                             1
--

++    Orbital specifications:
      -----------------------

      Symmetry species                           1   2   3   4   5   6   7   8
                                                ag b3u b2u b1g b1u b2g b3g  au
      Frozen orbitals                            0   0   0   0   0   0   0   0
      Inactive orbitals                          4   3   4   3   0   0   0   0
      Active orbitals                            2   1   2   1   2   1   2   1
      RAS1 orbitals                              0   0   0   0   0   0   0   0
      RAS2 orbitals                              2   1   2   1   2   1   2   1
      RAS3 orbitals                              0   0   0   0   0   0   0   0
      Secondary orbitals                        15  12  15  12   5   4   5   4
      Deleted orbitals                           0   0   0   0   0   0   0   0
      Number of basis functions                 21  16  21  16   7   5   7   5
--

++    CI expansion specifications:
      ----------------------------

      Number of CSFs                         28704
      Number of determinants                 54022
      Number of root(s) required                 1
      Root chosen for geometry opt.              1
      CI root used                               1
         
      highest root included in the CI            1
      max. size of the explicit Hamiltonian    200
--

++    Optimization specifications:
      ----------------------------

      RASSCF algorithm: Conventional
      Maximum number of macro iterations       200
      Maximum number of SX iterations          100
      Threshold for RASSCF energy            1.000E-08
      Threshold for max MO rotation          1.000E-01
      Threshold for max BLB element          1.000E-04
      Level shift parameter                  5.000E-01
      Make Quasi-Newton update
--

      The MO-coefficients are taken from the file:
      INPORB                                                                                                                                                                                                                                                          
      Title: RASSCF average (pseudo-natural) orbitals                                      

      Total molecular charge    0.00

      ************************************************************************************************************************
      *                                                                                                                      *
      *                                            Wave function control section                                             *
      *                                                                                                                      *
      ************************************************************************************************************************


                                         RASSCF iterations: Energy and convergence statistics
                                         ----------------------------------------------------

      Iter CI   SX   CI       RASSCF       Energy    max ROT     max BLB   max BLB  Level Ln srch  Step   QN   Walltime
          iter iter root      energy       change     param      element    value   shift minimum  type update hh:mm:ss
 Nr of preliminary CI iterations:   6
        1   1    5    1  -229.52646083    0.00E+00  -4.80E-04    3   6 1  1.97E-04*  0.08   0.00    SX    NO    0:00:01
        2   1    5    1  -229.52646103   -2.03E-07* -1.55E-04    3   6 1  2.91E-05   0.08   0.00    SX    NO    0:00:00
        3   2    4    1  -229.52646834   -7.31E-06*  7.27E-05    1   5 7  2.99E-05   0.08   0.00    SX    NO    0:00:00
        4   6    5    1  -229.52647131   -2.97E-06* -3.07E-04    3   6 1 -1.26E-04*  0.08   0.00    SX    NO    0:00:01
        5   3    5    1  -229.52647140   -9.49E-08* -1.97E-04    3   6 1 -4.01E-05   0.08   1.38    QN   YES    0:00:00
        6   3    4    1  -229.52647142   -1.62E-08* -5.61E-05    4   7 2  8.08E-06   0.08   1.07    QN   YES    0:00:00
        7   1    4    1  -229.52647142   -1.36E-09  -4.07E-05    3   6 1  3.99E-06   0.08   1.38    QN   YES    0:00:00
      Convergence after  7 iterations
        8   1    4    1  -229.52647142   -4.05E-10  -4.07E-05    1   2 6  1.73E-06   0.08   1.38    QN   YES    0:00:00

      ************************************************************************************************************************
                                                      Wave function printout:
                       occupation of active orbitals, and spin coupling of open shells (u,d: Spin up or down)
      ************************************************************************************************************************

      Note: transformation to natural orbitals
      has been made, which may change the order of the CSFs.

      printout of CI-coefficients larger than  0.05 for root  1
      energy=    -229.526471
      conf/sym  112334556778     Coeff  Weight
          5774  22 2 00 0 22 2 00 0   0.06751 0.00456
          5776  22 2 00 0 20 2 20 0  -0.46082 0.21236
          5792  22 2 00 0 2u d u0 d  -0.08342 0.00696
          5812  22 2 00 0 20 0 20 2   0.07171 0.00514
          5878  20 2 20 0 22 2 00 0  -0.08523 0.00726
          5880  20 2 20 0 20 2 20 0   0.79584 0.63337
          5885  20 2 20 0 ud 2 ud 0  -0.05569 0.00310
          5887  20 2 20 0 uu 2 dd 0   0.05529 0.00306
          5896  20 2 20 0 2u d u0 d   0.12210 0.01491
          5902  20 2 20 0 u0 d 2u d  -0.08163 0.00666
          5916  20 2 20 0 20 0 20 2  -0.11740 0.01378
          7024  u0 d 2u d 20 2 20 0  -0.05373 0.00289
         10078  2u 2 d0 0 2u 2 d0 0  -0.07366 0.00543
         10650  20 u 20 d 20 u 20 d  -0.05340 0.00285
         17656  2u 2 u0 0 2d 2 d0 0   0.10952 0.01200

      Natural orbitals and occupation numbers for root  1
      sym 1:   1.974059   0.533543
      sym 2:   1.972162
      sym 3:   1.472369   0.022194
      sym 4:   0.024349
      sym 5:   1.959153   0.094354
      sym 6:   1.897548
      sym 7:   1.904614   0.038357
      sym 8:   0.107297

      ************************************************************************************************************************
      *                                                                                                                      *
      *                                                    Final results                                                     *
      *                                                                                                                      *
      ************************************************************************************************************************


++    Wave function specifications:
      -----------------------------

      Number of closed shell electrons          28
      Number of electrons in active shells      12
      Max number of holes in RAS1 space          0
      Max nr of electrons in RAS3 space          0
      Number of inactive orbitals               14
      Number of active orbitals                 12
      Number of secondary orbitals              72
      Spin quantum number                      0.0
      State symmetry                             1
--

++    Orbital specifications:
      -----------------------

      Symmetry species                           1   2   3   4   5   6   7   8
                                                ag b3u b2u b1g b1u b2g b3g  au
      Frozen orbitals                            0   0   0   0   0   0   0   0
      Inactive orbitals                          4   3   4   3   0   0   0   0
      Active orbitals                            2   1   2   1   2   1   2   1
      RAS1 orbitals                              0   0   0   0   0   0   0   0
      RAS2 orbitals                              2   1   2   1   2   1   2   1
      RAS3 orbitals                              0   0   0   0   0   0   0   0
      Secondary orbitals                        15  12  15  12   5   4   5   4
      Deleted orbitals                           0   0   0   0   0   0   0   0
      Number of basis functions                 21  16  21  16   7   5   7   5
--

++    CI expansion specifications:
      ----------------------------

      Number of CSFs                         28704
      Number of determinants                 54022
      Number of root(s) required                 1
      CI root used                               1
      highest root included in the CI            1
      Root passed to geometry opt.               1
--

++    Final optimization conditions:
      ------------------------------

      Average CI energy                            -229.52647142
      RASSCF energy for state  1                   -229.52647142
      Super-CI energy                                -0.00000000
      RASSCF energy change                            0.00000000
      Max change in MO coefficients              -1.118E-04
      Max non-diagonal density matrix element    -4.068E-05
      Maximum BLB matrix element                  1.735E-06
      (orbital pair   1,   2 in symmetry   6)
      Norm of electronic gradient            6.602E-06
--


      Final state energy(ies):
      ------------------------

::    RASSCF root number  1 Total energy:   -229.52647142

++    Molecular orbitals:
      -------------------

      Pseudonatural active orbitals and approximate occupation numbers




      Molecular orbitals for symmetry species 1: ag 


      Orbital                 1         2         3         4         5         6
      Energy           -11.2336  -11.2227   -1.1143   -0.7538   -0.6859    0.0039
      Occ. No.           2.0000    2.0000    2.0000    2.0000    1.9741    0.5335

     1 C1     1s         0.9895   -0.1091   -0.1570   -0.0805    0.1020   -0.0041
     2 C1     2s         0.0274   -0.0032    0.2933    0.1550   -0.2103    0.0087
     3 C1     *s        -0.0084    0.0086    0.1753    0.1619   -0.1551   -0.0541
     4 C1     2px       -0.0001    0.0005   -0.1500    0.3917   -0.0085   -0.0839
     5 C1     *px        0.0003   -0.0041   -0.0170    0.1580    0.0103    0.0531
     6 C1     2py       -0.0005    0.0013   -0.0987   -0.0764   -0.5129   -0.3118
     7 C1     *py        0.0006    0.0002   -0.0468   -0.0574   -0.1960   -0.2318
     8 C1     *200      -0.0010   -0.0001    0.0129    0.0077    0.0088    0.0219
     9 C1     *110       0.0001   -0.0003    0.0054   -0.0121    0.0087   -0.0173
    10 C1     *020      -0.0015   -0.0001    0.0023    0.0042   -0.0140   -0.0171
    11 C1     *002      -0.0015    0.0000   -0.0084   -0.0034    0.0044   -0.0012
    12 C2     1s         0.1078    0.9900   -0.1670    0.0628   -0.0765    0.0698
    13 C2     2s         0.0026    0.0276    0.3202   -0.1236    0.1658   -0.1619
    14 C2     *s         0.0039   -0.0161    0.2027   -0.0507    0.1822   -0.2723
    15 C2     2py       -0.0002    0.0015    0.0953   -0.1108   -0.1151    0.5883
    16 C2     *py        0.0007   -0.0037    0.0148   -0.0104   -0.0355    0.4563
    17 C2     *200      -0.0003   -0.0007    0.0105    0.0021    0.0088    0.0157
    18 C2     *020      -0.0004   -0.0014   -0.0030   -0.0053   -0.0106   -0.0140
    19 C2     *002      -0.0003   -0.0014   -0.0074    0.0031   -0.0002    0.0006
    20 H3     1s        -0.0003   -0.0001    0.0742    0.2781    0.0508    0.1061
    21 H3     *s         0.0021    0.0006    0.0228    0.1442    0.0703    0.0998



      Molecular orbitals for symmetry species 2: b3u


      Orbital                 1         2         3         4
      Energy           -11.2335   -0.9260   -0.6307   -0.6319
      Occ. No.           2.0000    2.0000    2.0000    1.9722

     1 C1     1s         0.9955   -0.1887    0.0206    0.1134
     2 C1     2s         0.0280    0.3568   -0.0431   -0.2330
     3 C1     *s        -0.0092    0.3028   -0.0572   -0.1773
     4 C1     2px       -0.0002   -0.0026    0.4801    0.0208
     5 C1     *px        0.0010    0.0206    0.2030    0.0267
     6 C1     2py       -0.0004   -0.1696    0.0205   -0.5646
     7 C1     *py        0.0007   -0.1003   -0.0013   -0.2345
     8 C1     *200      -0.0011    0.0126    0.0107    0.0118
     9 C1     *110       0.0001    0.0003   -0.0173    0.0043
    10 C1     *020      -0.0015    0.0054   -0.0019   -0.0161
    11 C1     *002      -0.0015   -0.0092    0.0002    0.0037
    12 C2     2px       -0.0002    0.2849   -0.3251    0.1227
    13 C2     *px        0.0021    0.0322   -0.0626    0.0329
    14 C2     *110       0.0000    0.0135   -0.0271   -0.0128
    15 H3     1s        -0.0002    0.1847    0.2432    0.0818
    16 H3     *s         0.0017    0.0736    0.1727    0.1022



      Molecular orbitals for symmetry species 3: b2u


      Orbital                 1         2         3         4         5         6
      Energy           -11.2329  -11.2228   -1.0064   -0.6434   -0.2095   -0.0002
      Occ. No.           2.0000    2.0000    2.0000    2.0000    1.4724    0.0222

     1 C1     1s         0.9891   -0.1163   -0.1514    0.0787   -0.0700   -0.1347
     2 C1     2s         0.0280   -0.0038    0.2962   -0.1557    0.1762    0.6243
     3 C1     *s        -0.0219    0.0180    0.1959   -0.1628    0.0852    0.9848
     4 C1     2px       -0.0003    0.0003   -0.1578   -0.3973   -0.1021    0.0355
     5 C1     *px        0.0049   -0.0081    0.0192   -0.2181    0.1576   -0.1500
     6 C1     2py        0.0001    0.0003   -0.1512    0.1017    0.0684    1.0673
     7 C1     *py       -0.0037    0.0021   -0.0288    0.0646    0.0593    0.6105
     8 C1     *200      -0.0007   -0.0002    0.0167   -0.0093    0.0154   -0.0498
     9 C1     *110       0.0002   -0.0002    0.0108    0.0343   -0.0116   -0.0158
    10 C1     *020      -0.0008   -0.0004   -0.0081    0.0004   -0.0171    0.0093
    11 C1     *002      -0.0013   -0.0000   -0.0065    0.0032    0.0005   -0.0108
    12 C2     1s         0.1150    0.9891   -0.1782   -0.0791    0.0801   -0.0005
    13 C2     2s         0.0028    0.0283    0.3419    0.1607   -0.1663    0.0710
    14 C2     *s         0.0111   -0.0229    0.2707    0.0803   -0.1185   -0.1875
    15 C2     2py       -0.0002    0.0016    0.1244    0.1043    0.5534   -0.2699
    16 C2     *py        0.0034   -0.0060    0.0536    0.0059    0.4986   -0.2585
    17 C2     *200      -0.0005   -0.0006    0.0116   -0.0028    0.0045   -0.0313
    18 C2     *020      -0.0005   -0.0014   -0.0033    0.0034    0.0024    0.0253
    19 C2     *002      -0.0003   -0.0013   -0.0077   -0.0027   -0.0022    0.0009
    20 H3     1s         0.0003   -0.0001   -0.0780    0.3180   -0.0416    0.0286
    21 H3     *s        -0.0009   -0.0013   -0.0045    0.1854    0.0248   -0.0274



      Molecular orbitals for symmetry species 4: b1g


      Orbital                 1         2         3         4
      Energy           -11.2328   -0.8396   -0.5393    0.6811
      Occ. No.           2.0000    2.0000    2.0000    0.0243

     1 C1     1s         0.9958   -0.1831   -0.0019    0.1663
     2 C1     2s         0.0281    0.3640    0.0111   -0.6974
     3 C1     *s        -0.0169    0.3337   -0.0219   -0.8455
     4 C1     2px       -0.0003   -0.0311   -0.4757    0.0558
     5 C1     *px        0.0023    0.0472   -0.2353    0.0815
     6 C1     2py        0.0000   -0.2139   -0.0233   -1.0208
     7 C1     *py       -0.0020   -0.0938   -0.0076   -0.5050
     8 C1     *200      -0.0009    0.0149   -0.0120    0.0465
     9 C1     *110       0.0002    0.0028    0.0416    0.0192
    10 C1     *020      -0.0008   -0.0054    0.0010    0.0005
    11 C1     *002      -0.0014   -0.0074    0.0007    0.0094
    12 C2     2px       -0.0002    0.3174    0.3463    0.0643
    13 C2     *px        0.0025    0.0371    0.0962    0.0191
    14 C2     *110      -0.0001    0.0169    0.0255   -0.0274
    15 H3     1s         0.0002   -0.1796    0.2909   -0.0398
    16 H3     *s        -0.0015   -0.0452    0.2338   -0.0224



      Molecular orbitals for symmetry species 5: b1u


      Orbital                 1         2
      Energy            -0.5000    0.2159
      Occ. No.           1.9592    0.0944

     1 C1     2pz        0.4319   -0.4608
     2 C1     *pz        0.2678   -0.3764
     3 C1     *101      -0.0216   -0.0252
     4 C1     *011       0.0093   -0.0592
     5 C2     2pz        0.3169    0.6489
     6 C2     *pz        0.1682    0.4959
     7 C2     *011       0.0196   -0.0202



      Molecular orbitals for symmetry species 6: b2g


      Orbital                 1
      Energy            -0.3116
      Occ. No.           1.8975

     1 C1     2pz        0.5691
     2 C1     *pz        0.4568
     3 C1     *101      -0.0026
     4 C1     *011       0.0229
     5 C2     *101       0.0320



      Molecular orbitals for symmetry species 7: b3g


      Orbital                 1         2
      Energy            -0.3444    0.4579
      Occ. No.           1.9046    0.0384

     1 C1     2pz        0.3558   -0.8094
     2 C1     *pz        0.2605   -0.4294
     3 C1     *101      -0.0276   -0.0048
     4 C1     *011      -0.0240   -0.0343
     5 C2     2pz        0.4596    0.5495
     6 C2     *pz        0.3157    0.4047
     7 C2     *011       0.0169   -0.0262



      Molecular orbitals for symmetry species 8: au 


      Orbital                 1
      Energy             0.1494
      Occ. No.           0.1073

     1 C1     2pz        0.8102
     2 C1     *pz        0.4883
     3 C1     *101      -0.0181
     4 C1     *011      -0.0040
     5 C2     *101       0.0437
--

      Von Neumann Entropy (Root   1) =  1.73381


      Mulliken population analysis for root number:  1
      -----------------------------------------------


++    Molecular charges:
      ------------------

      Mulliken charges per centre and basis function type
      ---------------------------------------------------

                C1      C2      H3    
      1s       1.9966  1.9968  0.5230
      2s       0.6780  0.6896  0.0000
      2px      0.7598  0.7845  0.0000
      2pz      0.5624  0.5567  0.0000
      2py      0.6829  0.6010  0.0000
      *s       0.5151  0.4783  0.2591
      *px      0.2910  0.0794  0.0000
      *110     0.0140  0.0154  0.0000
      *020     0.0142 -0.0036  0.0000
      *002    -0.0182 -0.0155  0.0000
      *200     0.0367  0.0285  0.0000
      *pz      0.4496  0.3885  0.0000
      *py      0.2455  0.3497  0.0000
      *101     0.0046  0.0091  0.0000
      *011     0.0047  0.0037  0.0000
      Total    6.2369  5.9621  0.7820

      N-E     -0.2369  0.0379  0.2180

      Total electronic charge=   40.000000

      Total            charge=   -0.000000
--



      Expectation values of various properties for root number:  1
      -----------------------------------------------------------


++    Molecular properties:
      ---------------------

      Charge (e):
                      =   -0.0000
      Dipole Moment (Debye):
      Origin of the operator (Ang)=    0.0000    0.0000    0.0000
                   X=  0.0000E+00               Y=  0.0000E+00               Z=  0.0000E+00           Total=  0.0000E+00
      Quadrupole Moment (Debye*Ang):
      Origin of the operator (Ang)=    0.0000    0.0000    0.0000
                  XX= -2.6886E+01              XY=  0.0000E+00              XZ=  0.0000E+00              YY= -3.5955E+01
                  YZ=  0.0000E+00              ZZ= -3.7297E+01
      In traceless form (Debye*Ang)
                  XX=  9.7400E+00              XY=  0.0000E+00              XZ=  0.0000E+00              YY= -3.8640E+00
                  YZ=  0.0000E+00              ZZ= -5.8760E+00
--


      Input file to MOLDEN was generated!

      Average orbitals are written to the RASORB file
      Natural orbitals for root   1 are written to the RASORB.1 file
      Spin density orbitals for root   1 are written to the SPDORB.1 file

--- Stop Module: rasscf at Mon Jul  8 13:19:41 2024 /rc=_RC_ALL_IS_WELL_ ---
*** files: product.rasscf.molden product.RasOrb product.RasOrb.1 product.SpdOrb.1 xmldump
    saved to directory /home/kenya/molcas_test/exercise_1
--- Module rasscf spent 6 seconds ---

--- Start Module: alaska at Mon Jul  8 13:19:41 2024 ---

()()()()()()()()()()()()()()()()()()()()()()()()()()()()()()()()()()()()()()()()()()()()()()()()()()

                                              &ALASKA

                                   only a single process is used
                       available to each process: 2.0 GB of memory, 1 thread
                                            pid: 495257
()()()()()()()()()()()()()()()()()()()()()()()()()()()()()()()()()()()()()()()()()()()()()()()()()()


                     Threshold for contributions to the gradient: 1.000E-07


                    ********************************************
                    * Symmetry Adapted Cartesian Displacements *
                    ********************************************


           Irreducible representation : ag 
           Basis function(s) of irrep:                                                                                 

 Basis Label        Type   Center Phase
   1   C1           x         1     1      2    -1      3     1      4    -1
   2   C1           y         1     1      2     1      3    -1      4    -1
   3   C2           y         5     1      6    -1
   4   H3           x         7     1      8    -1      9     1     10    -1
   5   H3           y         7     1      8     1      9    -1     10    -1

           Irreducible representation : b3u
           Basis function(s) of irrep: x                                                                               

 Basis Label        Type   Center Phase
   6   C1           x         1     1      2     1      3     1      4     1
   7   C1           y         1     1      2    -1      3    -1      4     1
   8   C2           x         5     1      6     1
   9   H3           x         7     1      8     1      9     1     10     1
  10   H3           y         7     1      8    -1      9    -1     10     1

           Irreducible representation : b2u
           Basis function(s) of irrep: y                                                                               

 Basis Label        Type   Center Phase
  11   C1           x         1     1      2    -1      3    -1      4     1
  12   C1           y         1     1      2     1      3     1      4     1
  13   C2           y         5     1      6     1
  14   H3           x         7     1      8    -1      9    -1     10     1
  15   H3           y         7     1      8     1      9     1     10     1

           Irreducible representation : b1g
           Basis function(s) of irrep: xy, Rz                                                                          

 Basis Label        Type   Center Phase
  16   C1           x         1     1      2     1      3    -1      4    -1
  17   C1           y         1     1      2    -1      3     1      4    -1
  18   C2           x         5     1      6    -1
  19   H3           x         7     1      8     1      9    -1     10    -1
  20   H3           y         7     1      8    -1      9     1     10    -1

           Irreducible representation : b1u
           Basis function(s) of irrep: z                                                                               

 Basis Label        Type   Center Phase
  21   C1           z         1     1      2     1      3     1      4     1
  22   C2           z         5     1      6     1
  23   H3           z         7     1      8     1      9     1     10     1

           Irreducible representation : b2g
           Basis function(s) of irrep: xz, Ry                                                                          

 Basis Label        Type   Center Phase
  24   C1           z         1     1      2    -1      3     1      4    -1
  25   H3           z         7     1      8    -1      9     1     10    -1

           Irreducible representation : b3g
           Basis function(s) of irrep: yz, Rx                                                                          

 Basis Label        Type   Center Phase
  26   C1           z         1     1      2     1      3    -1      4    -1
  27   C2           z         5     1      6    -1
  28   H3           z         7     1      8     1      9    -1     10    -1

           Irreducible representation : au 
           Basis function(s) of irrep: I                                                                               

 Basis Label        Type   Center Phase
  29   C1           z         1     1      2    -1      3    -1      4     1
  30   H3           z         7     1      8    -1      9    -1     10     1

                     No automatic utilization of translational and rotational invariance of the energy is employed.

 Conventional ERI gradients!

 **************************************************
 *                                                *
 *              Molecular gradients               *
 *                                                *
 **************************************************

  Irreducible representation: ag 
 ------------------------------------------------------------------------------------------
                              X                       Y                       Z
 ------------------------------------------------------------------------------------------
  C1               -3.70491566908022E-02   -3.84598668060780E-02    0.00000000000000E+00
  C1                3.70491566908022E-02   -3.84598668060780E-02    0.00000000000000E+00
  C1               -3.70491566908022E-02    3.84598668060780E-02    0.00000000000000E+00
  C1                3.70491566908022E-02    3.84598668060780E-02    0.00000000000000E+00
  C2                0.00000000000000E+00    4.92824545584298E-02    0.00000000000000E+00
  C2                0.00000000000000E+00   -4.92824545584298E-02    0.00000000000000E+00
  H3                3.28726429513582E-03   -7.19933940732087E-03    0.00000000000000E+00
  H3               -3.28726429513582E-03   -7.19933940732087E-03    0.00000000000000E+00
  H3                3.28726429513582E-03    7.19933940732087E-03    0.00000000000000E+00
  H3               -3.28726429513582E-03    7.19933940732087E-03    0.00000000000000E+00
 ------------------------------------------------------------------------------------------

--- Stop Module: alaska at Mon Jul  8 13:19:43 2024 /rc=_RC_ALL_IS_WELL_ ---
*** files: xmldump
    saved to directory /home/kenya/molcas_test/exercise_1
--- Module alaska spent 1 second ---

--- Start Module: slapaf at Mon Jul  8 13:19:43 2024 ---

()()()()()()()()()()()()()()()()()()()()()()()()()()()()()()()()()()()()()()()()()()()()()()()()()()

                                              &SLAPAF

                                   only a single process is used
                       available to each process: 2.0 GB of memory, 1 thread
                                            pid: 495292
()()()()()()()()()()()()()()()()()()()()()()()()()()()()()()()()()()()()()()()()()()()()()()()()()()



++       Slapaf input parameters:
         ------------------------

 Maximum number of iterations:              2000
 Convergence test a la Schlegel.
 Convergence criterion on gradient/para.<=: 3.0E-04
 Convergence criterion on step/parameter<=: 3.0E-04
 Convergence criterion on energy change <=: 0.0E+00
 Parameters for step-restricted optimization
 Maximum step length (initial seed):       3.00E-01

 -RFO activated with parameters:
   Maximum number of data points used in RFO:      5
 Line search is performed


 -Optimization for minimum.
  Optimization method: RS-RFO.

 -Initial Hessian guessed by Hessian Model Function (HMF).
  HMF augmented with weak interactions.

 -Hessian update method: Broyden-Fletcher-Goldfarb-Shanno
  Maximum number of points in Hessian update:  5

 -Relaxation will be done on non-redundant internal coordinates, based on
  force constant weighted redundant internal coordinates.

--

 ******************************************
 * Statistics of the internal coordinates *
 ******************************************
 Translations and Rotations:         0
 Bonds                     :         3
 Angles                    :         4
 Torsions                  :         5
 Out-of-plane angles       :         1


**********************************************************************************************************************
*                                    Energy Statistics for Geometry Optimization                                     *
**********************************************************************************************************************
                       Energy     Grad      Grad              Step                 Estimated   Geom       Hessian     
Iter      Energy       Change     Norm      Max    Element    Max     Element     Final Energy Update Update   Index  
  1   -229.52647142  0.00000000 0.128512 -0.071937 nrc001  -0.130825  nrc001     -229.53202958 RS-RFO  None      0    

       +----------------------------------+----------------------------------+
       +    Cartesian Displacements       +    Gradient in internals         +
       +  Value      Threshold Converged? +  Value      Threshold Converged? +
 +-----+----------------------------------+----------------------------------+
 + RMS + 4.4152E-02  1.2000E-03     No    + 5.7472E-02  3.0000E-04     No    +
 +-----+----------------------------------+----------------------------------+
 + Max + 5.7009E-02  1.8000E-03     No    + 7.1937E-02  4.5000E-04     No    +
 +-----+----------------------------------+----------------------------------+

 Convergence not reached yet!

*****************************************************************************************************************
*****************************************************************************************************************

++ Geometry section

********************************************************************************
  Geometrical information of the new structure
********************************************************************************


 *********************************************************
 * Nuclear coordinates for the next iteration / Bohr     *
 *********************************************************
  ATOM              X               Y               Z     
  C1               2.272700       -1.395900        0.000000
  C2               0.000000       -2.566623        0.000000
  H3               4.089253        2.291127        0.000000


 *********************************************************
 * Nuclear coordinates for the next iteration / Angstrom *
 *********************************************************
  ATOM              X               Y               Z     
  C1               1.202661       -0.738678        0.000000
  C2               0.000000       -1.358199        0.000000
  H3               2.163939        1.212412        0.000000


                    *************************************** 
                    *    InterNuclear Distances / Bohr    * 
                    *************************************** 

               1 C1            2 C1            3 C1            4 C1            5 C2    
    1 C1       0.000000
    2 C1       4.545399        0.000000
    3 C1       2.791800        5.334304        0.000000
    4 C1       5.334304        2.791800        4.545399        0.000000
    5 C2       2.556513        2.556513        4.568014        4.568014        0.000000
    6 C2       4.568014        4.568014        2.556513        2.556513        5.133246
    7 H3       4.110236        7.353136        2.025166        6.424630        6.349782
    8 H3       7.353136        4.110236        6.424630        2.025166        6.349782
    9 H3       2.025166        6.424630        4.110236        7.353136        4.098523
   10 H3       6.424630        2.025166        7.353136        4.110236        4.098523

               6 C2            7 H3            8 H3            9 H3           10 H3    
    6 C2       0.000000
    7 H3       4.098523        0.000000
    8 H3       4.098523        8.178506        0.000000
    9 H3       6.349782        4.582255        9.374701        0.000000
   10 H3       6.349782        9.374701        4.582255        8.178506        0.000000

                    ******************************************* 
                    *    InterNuclear Distances / Angstrom    * 
                    ******************************************* 

               1 C1            2 C1            3 C1            4 C1            5 C2    
    1 C1       0.000000
    2 C1       2.405322        0.000000
    3 C1       1.477357        2.822792        0.000000
    4 C1       2.822792        1.477357        2.405322        0.000000
    5 C2       1.352848        1.352848        2.417289        2.417289        0.000000
    6 C2       2.417289        2.417289        1.352848        1.352848        2.716397
    7 H3       2.175043        3.891112        1.071672        3.399768        3.360160
    8 H3       3.891112        2.175043        3.399768        1.071672        3.360160
    9 H3       1.071672        3.399768        2.175043        3.891112        2.168845
   10 H3       3.399768        1.071672        3.891112        2.175043        2.168845

               6 C2            7 H3            8 H3            9 H3           10 H3    
    6 C2       0.000000
    7 H3       2.168845        0.000000
    8 H3       2.168845        4.327879        0.000000
    9 H3       3.360160        2.424825        4.960878        0.000000
   10 H3       3.360160        4.960878        2.424825        4.327879        0.000000

                    ************************************** 
                    *    Valence Bond Angles / Degree    * 
                    ************************************** 
                          Atom centers                 Phi
                      3 C1       1 C1       5 C2       117.25
                      3 C1       1 C1       9 H3       116.23
                      5 C2       1 C1       9 H3       126.51
                      4 C1       2 C1       5 C2       117.25
                      4 C1       2 C1      10 H3       116.23
                      5 C2       2 C1      10 H3       126.51
                      1 C1       3 C1       6 C2       117.25
                      1 C1       3 C1       7 H3       116.23
                      6 C2       3 C1       7 H3       126.51
                      2 C1       4 C1       6 C2       117.25
                      2 C1       4 C1       8 H3       116.23
                      6 C2       4 C1       8 H3       126.51
                      1 C1       5 C2       2 C1       125.49
                      3 C1       6 C2       4 C1       125.49

           ***************************************************************
           *              Valence Dihedral Angles / Degree               *
           ***************************************************************
                    Atom centers                       Phi1     Phi2     Theta 
           5 C2       1 C1       3 C1       6 C2        117.25   117.25    -0.00
           5 C2       1 C1       3 C1       7 H3        117.25   116.23  -180.00
           5 C2       2 C1       4 C1       6 C2        117.25   117.25    -0.00
           5 C2       2 C1       4 C1       8 H3        117.25   116.23  -180.00
           6 C2       3 C1       1 C1       9 H3        117.25   116.23  -180.00
           7 H3       3 C1       1 C1       9 H3        116.23   116.23     0.00
           1 C1       3 C1       6 C2       4 C1        117.25   125.49    -0.00
           6 C2       4 C1       2 C1      10 H3        117.25   116.23  -180.00
           8 H3       4 C1       2 C1      10 H3        116.23   116.23    -0.00
           2 C1       4 C1       6 C2       3 C1        117.25   125.49    -0.00
           2 C1       5 C2       1 C1       3 C1        125.49   117.25    -0.00
           2 C1       5 C2       1 C1       9 H3        125.49   126.51  -180.00
           1 C1       5 C2       2 C1       4 C1        125.49   117.25    -0.00
           1 C1       5 C2       2 C1      10 H3        125.49   126.51  -180.00
           4 C1       6 C2       3 C1       7 H3        125.49   126.51  -180.00
           3 C1       6 C2       4 C1       8 H3        125.49   126.51  -180.00
--
--- Stop Module: slapaf at Mon Jul  8 13:19:43 2024 /rc=_RC_CONTINUE_LOOP_ ---
*** files: product.geo.molden product.structure product.Opt.xyz xmldump
    saved to directory /home/kenya/molcas_test/exercise_1

>>> END DO

--- Start Module: seward at Mon Jul  8 13:19:43 2024 ---
--- Stop Module: seward at Mon Jul  8 13:19:44 2024 /rc=_RC_ALL_IS_WELL_ ---
*** files: xmldump
    saved to directory /home/kenya/molcas_test/exercise_1
--- Module seward spent 1 second ---

--- Start Module: rasscf at Mon Jul  8 13:19:44 2024 ---
--- Stop Module: rasscf at Mon Jul  8 13:19:52 2024 /rc=_RC_ALL_IS_WELL_ ---
*** files: product.rasscf.molden product.RasOrb product.RasOrb.1 product.SpdOrb.1 xmldump
    saved to directory /home/kenya/molcas_test/exercise_1
--- Module rasscf spent 8 seconds ---

--- Start Module: alaska at Mon Jul  8 13:19:52 2024 ---
--- Stop Module: alaska at Mon Jul  8 13:19:54 2024 /rc=_RC_ALL_IS_WELL_ ---
*** files: xmldump
    saved to directory /home/kenya/molcas_test/exercise_1
--- Module alaska spent 1 second ---

--- Start Module: slapaf at Mon Jul  8 13:19:54 2024 ---

**********************************************************************************************************************
*                                    Energy Statistics for Geometry Optimization                                     *
**********************************************************************************************************************
                       Energy     Grad      Grad              Step                 Estimated   Geom       Hessian     
Iter      Energy       Change     Norm      Max    Element    Max     Element     Final Energy Update Update   Index  
  1   -229.52647142  0.00000000 0.128512 -0.071937 nrc001  -0.130825  nrc001     -229.53202958 RS-RFO  None      0    
  2   -229.53468363 -0.00821221 0.067827 -0.036173 nrc001  -0.166476  nrc001     -229.53792666 RS-RFO  BFGS      0    

       +----------------------------------+----------------------------------+
       +    Cartesian Displacements       +    Gradient in internals         +
       +  Value      Threshold Converged? +  Value      Threshold Converged? +
 +-----+----------------------------------+----------------------------------+
 + RMS + 5.2509E-02  1.2000E-03     No    + 3.0333E-02  3.0000E-04     No    +
 +-----+----------------------------------+----------------------------------+
 + Max + 7.3091E-02  1.8000E-03     No    + 3.6173E-02  4.5000E-04     No    +
 +-----+----------------------------------+----------------------------------+

 Convergence not reached yet!

*****************************************************************************************************************
*****************************************************************************************************************

++ Geometry section

********************************************************************************
  Geometrical information of the new structure
********************************************************************************


 *********************************************************
 * Nuclear coordinates for the next iteration / Bohr     *
 *********************************************************
  ATOM              X               Y               Z     
  C1               2.299167       -1.372003        0.000000
  C2               0.000000       -2.590248        0.000000
  H3               4.069519        2.361504        0.000000


 *********************************************************
 * Nuclear coordinates for the next iteration / Angstrom *
 *********************************************************
  ATOM              X               Y               Z     
  C1               1.216667       -0.726033        0.000000
  C2               0.000000       -1.370700        0.000000
  H3               2.153497        1.249654        0.000000

--
--- Stop Module: slapaf at Mon Jul  8 13:19:54 2024 /rc=_RC_CONTINUE_LOOP_ ---
*** files: product.geo.molden product.structure product.Opt.xyz xmldump
    saved to directory /home/kenya/molcas_test/exercise_1

>>> END DO

--- Start Module: seward at Mon Jul  8 13:19:54 2024 ---
--- Stop Module: seward at Mon Jul  8 13:19:55 2024 /rc=_RC_ALL_IS_WELL_ ---
*** files: xmldump
    saved to directory /home/kenya/molcas_test/exercise_1
--- Module seward spent 1 second ---

--- Start Module: rasscf at Mon Jul  8 13:19:55 2024 ---
--- Stop Module: rasscf at Mon Jul  8 13:20:04 2024 /rc=_RC_ALL_IS_WELL_ ---
*** files: product.rasscf.molden product.RasOrb product.RasOrb.1 product.SpdOrb.1 xmldump
    saved to directory /home/kenya/molcas_test/exercise_1
--- Module rasscf spent 8 seconds ---

--- Start Module: alaska at Mon Jul  8 13:20:04 2024 ---
--- Stop Module: alaska at Mon Jul  8 13:20:05 2024 /rc=_RC_ALL_IS_WELL_ ---
*** files: xmldump
    saved to directory /home/kenya/molcas_test/exercise_1
--- Module alaska spent 1 second ---

--- Start Module: slapaf at Mon Jul  8 13:20:05 2024 ---

**********************************************************************************************************************
*                                    Energy Statistics for Geometry Optimization                                     *
**********************************************************************************************************************
                       Energy     Grad      Grad              Step                 Estimated   Geom       Hessian     
Iter      Energy       Change     Norm      Max    Element    Max     Element     Final Energy Update Update   Index  
  1   -229.52647142  0.00000000 0.128512 -0.071937 nrc001  -0.130825  nrc001     -229.53202958 RS-RFO  None      0    
  2   -229.53468363 -0.00821221 0.067827 -0.036173 nrc001  -0.166476  nrc001     -229.53792666 RS-RFO  BFGS      0    
  3   -229.53790550 -0.00322187 0.009403 -0.007035 nrc003  -0.009304  nrc003     -229.53796745 RS-RFO  BFGS      0    

       +----------------------------------+----------------------------------+
       +    Cartesian Displacements       +    Gradient in internals         +
       +  Value      Threshold Converged? +  Value      Threshold Converged? +
 +-----+----------------------------------+----------------------------------+
 + RMS + 5.9317E-03  1.2000E-03     No    + 4.2051E-03  3.0000E-04     No    +
 +-----+----------------------------------+----------------------------------+
 + Max + 7.9280E-03  1.8000E-03     No    + 7.0353E-03  4.5000E-04     No    +
 +-----+----------------------------------+----------------------------------+

 Convergence not reached yet!

*****************************************************************************************************************
*****************************************************************************************************************

++ Geometry section

********************************************************************************
  Geometrical information of the new structure
********************************************************************************


 *********************************************************
 * Nuclear coordinates for the next iteration / Bohr     *
 *********************************************************
  ATOM              X               Y               Z     
  C1               2.300692       -1.367597        0.000000
  C2               0.000000       -2.582320        0.000000
  H3               4.072362        2.356335        0.000000


 *********************************************************
 * Nuclear coordinates for the next iteration / Angstrom *
 *********************************************************
  ATOM              X               Y               Z     
  C1               1.217474       -0.723701        0.000000
  C2               0.000000       -1.366505        0.000000
  H3               2.155001        1.246919        0.000000

--
--- Stop Module: slapaf at Mon Jul  8 13:20:05 2024 /rc=_RC_CONTINUE_LOOP_ ---
*** files: product.geo.molden product.structure product.Opt.xyz xmldump
    saved to directory /home/kenya/molcas_test/exercise_1

>>> END DO

--- Start Module: seward at Mon Jul  8 13:20:05 2024 ---
--- Stop Module: seward at Mon Jul  8 13:20:06 2024 /rc=_RC_ALL_IS_WELL_ ---
*** files: xmldump
    saved to directory /home/kenya/molcas_test/exercise_1
--- Module seward spent 1 second ---

--- Start Module: rasscf at Mon Jul  8 13:20:06 2024 ---
--- Stop Module: rasscf at Mon Jul  8 13:20:14 2024 /rc=_RC_ALL_IS_WELL_ ---
*** files: product.rasscf.molden product.RasOrb product.RasOrb.1 product.SpdOrb.1 xmldump
    saved to directory /home/kenya/molcas_test/exercise_1
--- Module rasscf spent 7 seconds ---

--- Start Module: alaska at Mon Jul  8 13:20:14 2024 ---
--- Stop Module: alaska at Mon Jul  8 13:20:15 2024 /rc=_RC_ALL_IS_WELL_ ---
*** files: xmldump
    saved to directory /home/kenya/molcas_test/exercise_1
--- Module alaska spent 1 second ---

--- Start Module: slapaf at Mon Jul  8 13:20:15 2024 ---

**********************************************************************************************************************
*                                    Energy Statistics for Geometry Optimization                                     *
**********************************************************************************************************************
                       Energy     Grad      Grad              Step                 Estimated   Geom       Hessian     
Iter      Energy       Change     Norm      Max    Element    Max     Element     Final Energy Update Update   Index  
  1   -229.52647142  0.00000000 0.128512 -0.071937 nrc001  -0.130825  nrc001     -229.53202958 RS-RFO  None      0    
  2   -229.53468363 -0.00821221 0.067827 -0.036173 nrc001  -0.166476  nrc001     -229.53792666 RS-RFO  BFGS      0    
  3   -229.53790550 -0.00322187 0.009403 -0.007035 nrc003  -0.009304  nrc003     -229.53796745 RS-RFO  BFGS      0    
  4   -229.53799049 -0.00008499 0.004230 -0.003219 nrc003  -0.006613  nrc003     -229.53800744 RS-RFO  BFGS      0    

       +----------------------------------+----------------------------------+
       +    Cartesian Displacements       +    Gradient in internals         +
       +  Value      Threshold Converged? +  Value      Threshold Converged? +
 +-----+----------------------------------+----------------------------------+
 + RMS + 3.2182E-03  1.2000E-03     No    + 1.8918E-03  3.0000E-04     No    +
 +-----+----------------------------------+----------------------------------+
 + Max + 4.2902E-03  1.8000E-03     No    + 3.2185E-03  4.5000E-04     No    +
 +-----+----------------------------------+----------------------------------+

 Convergence not reached yet!

*****************************************************************************************************************
*****************************************************************************************************************

++ Geometry section

********************************************************************************
  Geometrical information of the new structure
********************************************************************************


 *********************************************************
 * Nuclear coordinates for the next iteration / Bohr     *
 *********************************************************
  ATOM              X               Y               Z     
  C1               2.300035       -1.364599        0.000000
  C2               0.000000       -2.578030        0.000000
  H3               4.071821        2.353694        0.000000


 *********************************************************
 * Nuclear coordinates for the next iteration / Angstrom *
 *********************************************************
  ATOM              X               Y               Z     
  C1               1.217126       -0.722115        0.000000
  C2               0.000000       -1.364235        0.000000
  H3               2.154715        1.245521        0.000000

--
--- Stop Module: slapaf at Mon Jul  8 13:20:15 2024 /rc=_RC_CONTINUE_LOOP_ ---
*** files: product.geo.molden product.structure product.Opt.xyz xmldump
    saved to directory /home/kenya/molcas_test/exercise_1

>>> END DO

--- Start Module: seward at Mon Jul  8 13:20:15 2024 ---
--- Stop Module: seward at Mon Jul  8 13:20:16 2024 /rc=_RC_ALL_IS_WELL_ ---
*** files: xmldump
    saved to directory /home/kenya/molcas_test/exercise_1
--- Module seward spent 1 second ---

--- Start Module: rasscf at Mon Jul  8 13:20:16 2024 ---
--- Stop Module: rasscf at Mon Jul  8 13:20:23 2024 /rc=_RC_ALL_IS_WELL_ ---
*** files: product.rasscf.molden product.RasOrb product.RasOrb.1 product.SpdOrb.1 xmldump
    saved to directory /home/kenya/molcas_test/exercise_1
--- Module rasscf spent 6 seconds ---

--- Start Module: alaska at Mon Jul  8 13:20:23 2024 ---
--- Stop Module: alaska at Mon Jul  8 13:20:24 2024 /rc=_RC_ALL_IS_WELL_ ---
*** files: xmldump
    saved to directory /home/kenya/molcas_test/exercise_1
--- Module alaska spent 1 second ---

--- Start Module: slapaf at Mon Jul  8 13:20:24 2024 ---

**********************************************************************************************************************
*                                    Energy Statistics for Geometry Optimization                                     *
**********************************************************************************************************************
                       Energy     Grad      Grad              Step                 Estimated   Geom       Hessian     
Iter      Energy       Change     Norm      Max    Element    Max     Element     Final Energy Update Update   Index  
  1   -229.52647142  0.00000000 0.128512 -0.071937 nrc001  -0.130825  nrc001     -229.53202958 RS-RFO  None      0    
  2   -229.53468363 -0.00821221 0.067827 -0.036173 nrc001  -0.166476  nrc001     -229.53792666 RS-RFO  BFGS      0    
  3   -229.53790550 -0.00322187 0.009403 -0.007035 nrc003  -0.009304  nrc003     -229.53796745 RS-RFO  BFGS      0    
  4   -229.53799049 -0.00008499 0.004230 -0.003219 nrc003  -0.006613  nrc003     -229.53800744 RS-RFO  BFGS      0    
  5   -229.53800834 -0.00001785 0.000502 -0.000455 nrc004  -0.000821  nrc004     -229.53800865 RS-RFO  BFGS      0    

       +----------------------------------+----------------------------------+
       +    Cartesian Displacements       +    Gradient in internals         +
       +  Value      Threshold Converged? +  Value      Threshold Converged? +
 +-----+----------------------------------+----------------------------------+
 + RMS + 5.1402E-04  1.2000E-03     Yes   + 2.2464E-04  3.0000E-04     Yes   +
 +-----+----------------------------------+----------------------------------+
 + Max + 6.2738E-04  1.8000E-03     Yes   + 4.5518E-04  4.5000E-04     No    +
 +-----+----------------------------------+----------------------------------+

 Convergence not reached yet!

*****************************************************************************************************************
*****************************************************************************************************************

++ Geometry section

********************************************************************************
  Geometrical information of the new structure
********************************************************************************


 *********************************************************
 * Nuclear coordinates for the next iteration / Bohr     *
 *********************************************************
  ATOM              X               Y               Z     
  C1               2.299533       -1.364478        0.000000
  C2               0.000000       -2.578065        0.000000
  H3               4.071193        2.353692        0.000000


 *********************************************************
 * Nuclear coordinates for the next iteration / Angstrom *
 *********************************************************
  ATOM              X               Y               Z     
  C1               1.216861       -0.722051        0.000000
  C2               0.000000       -1.364253        0.000000
  H3               2.154383        1.245520        0.000000

--
--- Stop Module: slapaf at Mon Jul  8 13:20:24 2024 /rc=_RC_CONTINUE_LOOP_ ---
*** files: product.geo.molden product.structure product.Opt.xyz xmldump
    saved to directory /home/kenya/molcas_test/exercise_1

>>> END DO

--- Start Module: seward at Mon Jul  8 13:20:24 2024 ---
--- Stop Module: seward at Mon Jul  8 13:20:25 2024 /rc=_RC_ALL_IS_WELL_ ---
*** files: xmldump
    saved to directory /home/kenya/molcas_test/exercise_1
--- Module seward spent 1 second ---

--- Start Module: rasscf at Mon Jul  8 13:20:25 2024 ---
--- Stop Module: rasscf at Mon Jul  8 13:20:30 2024 /rc=_RC_ALL_IS_WELL_ ---
*** files: product.rasscf.molden product.RasOrb product.RasOrb.1 product.SpdOrb.1 xmldump
    saved to directory /home/kenya/molcas_test/exercise_1
--- Module rasscf spent 4 seconds ---

--- Start Module: alaska at Mon Jul  8 13:20:30 2024 ---
--- Stop Module: alaska at Mon Jul  8 13:20:31 2024 /rc=_RC_ALL_IS_WELL_ ---
*** files: xmldump
    saved to directory /home/kenya/molcas_test/exercise_1
--- Module alaska spent 1 second ---

--- Start Module: slapaf at Mon Jul  8 13:20:31 2024 ---

**********************************************************************************************************************
*                                    Energy Statistics for Geometry Optimization                                     *
**********************************************************************************************************************
                       Energy     Grad      Grad              Step                 Estimated   Geom       Hessian     
Iter      Energy       Change     Norm      Max    Element    Max     Element     Final Energy Update Update   Index  
  1   -229.52647142  0.00000000 0.128512 -0.071937 nrc001  -0.130825  nrc001     -229.53202958 RS-RFO  None      0    
  2   -229.53468363 -0.00821221 0.067827 -0.036173 nrc001  -0.166476  nrc001     -229.53792666 RS-RFO  BFGS      0    
  3   -229.53790550 -0.00322187 0.009403 -0.007035 nrc003  -0.009304  nrc003     -229.53796745 RS-RFO  BFGS      0    
  4   -229.53799049 -0.00008499 0.004230 -0.003219 nrc003  -0.006613  nrc003     -229.53800744 RS-RFO  BFGS      0    
  5   -229.53800834 -0.00001785 0.000502 -0.000455 nrc004  -0.000821  nrc004     -229.53800865 RS-RFO  BFGS      0    
  6   -229.53800873 -0.00000039 0.000101 -0.000122 nrc004  -0.000283  nrc004     -229.53800875 RS-RFO  BFGS      0    

       +----------------------------------+----------------------------------+
       +    Cartesian Displacements       +    Gradient in internals         +
       +  Value      Threshold Converged? +  Value      Threshold Converged? +
 +-----+----------------------------------+----------------------------------+
 + RMS + 1.6084E-04  1.2000E-03     Yes   + 4.4947E-05  3.0000E-04     Yes   +
 +-----+----------------------------------+----------------------------------+
 + Max + 1.9648E-04  1.8000E-03     Yes   + 1.2165E-04  4.5000E-04     Yes   +
 +-----+----------------------------------+----------------------------------+

 Geometry is converged in   6 iterations to a Minimum Structure

*****************************************************************************************************************
*****************************************************************************************************************

++ Geometry section

********************************************************************************
  Geometrical information of the final structure
********************************************************************************

  NOTE: on convergence the final predicted structure will be printed here.
  This is not identical to the structure printed in the head of the output.

 *********************************************************
 * Nuclear coordinates of the final structure / Bohr     *
 *********************************************************
  ATOM              X               Y               Z     
  C1               2.299387       -1.364491        0.000000
  C2               0.000000       -2.578161        0.000000
  H3               4.071002        2.353738        0.000000


 *********************************************************
 * Nuclear coordinates of the final structure / Angstrom *
 *********************************************************
  ATOM              X               Y               Z     
  C1               1.216783       -0.722058        0.000000
  C2               0.000000       -1.364304        0.000000
  H3               2.154282        1.245545        0.000000


                    *************************************** 
                    *    InterNuclear Distances / Bohr    * 
                    *************************************** 

               1 C1            2 C1            3 C1            4 C1            5 C2    
    1 C1       0.000000
    2 C1       4.598774        0.000000
    3 C1       2.728983        5.347530        0.000000
    4 C1       5.347530        2.728983        4.598774        0.000000
    5 C2       2.600034        2.600034        4.564175        4.564175        0.000000
    6 C2       4.564175        4.564175        2.600034        2.600034        5.156322
    7 H3       4.118720        7.376116        2.029096        6.446741        6.395052
    8 H3       7.376116        4.118720        6.446741        2.029096        6.395052
    9 H3       2.029096        6.446741        4.118720        7.376116        4.077184
   10 H3       6.446741        2.029096        7.376116        4.118720        4.077184

               6 C2            7 H3            8 H3            9 H3           10 H3    
    6 C2       0.000000
    7 H3       4.077184        0.000000
    8 H3       4.077184        8.142005        0.000000
    9 H3       6.395052        4.707476        9.404923        0.000000
   10 H3       6.395052        9.404923        4.707476        8.142005        0.000000

                    ******************************************* 
                    *    InterNuclear Distances / Angstrom    * 
                    ******************************************* 

               1 C1            2 C1            3 C1            4 C1            5 C2    
    1 C1       0.000000
    2 C1       2.433567        0.000000
    3 C1       1.444116        2.829791        0.000000
    4 C1       2.829791        1.444116        2.433567        0.000000
    5 C2       1.375879        1.375879        2.415257        2.415257        0.000000
    6 C2       2.415257        2.415257        1.375879        1.375879        2.728608
    7 H3       2.179533        3.903273        1.073751        3.411469        3.384116
    8 H3       3.903273        2.179533        3.411469        1.073751        3.384116
    9 H3       1.073751        3.411469        2.179533        3.903273        2.157553
   10 H3       3.411469        1.073751        3.903273        2.179533        2.157553

               6 C2            7 H3            8 H3            9 H3           10 H3    
    6 C2       0.000000
    7 H3       2.157553        0.000000
    8 H3       2.157553        4.308563        0.000000
    9 H3       3.384116        2.491089        4.976871        0.000000
   10 H3       3.384116        4.976871        2.491089        4.308563        0.000000

                    ************************************** 
                    *    Valence Bond Angles / Degree    * 
                    ************************************** 
                          Atom centers                 Phi
                      3 C1       1 C1       5 C2       117.83
                      3 C1       1 C1       9 H3       119.18
                      5 C2       1 C1       9 H3       123.00
                      4 C1       2 C1       5 C2       117.83
                      4 C1       2 C1      10 H3       119.18
                      5 C2       2 C1      10 H3       123.00
                      1 C1       3 C1       6 C2       117.83
                      1 C1       3 C1       7 H3       119.18
                      6 C2       3 C1       7 H3       123.00
                      2 C1       4 C1       6 C2       117.83
                      2 C1       4 C1       8 H3       119.18
                      6 C2       4 C1       8 H3       123.00
                      1 C1       5 C2       2 C1       124.35
                      3 C1       6 C2       4 C1       124.35

           ***************************************************************
           *              Valence Dihedral Angles / Degree               *
           ***************************************************************
                    Atom centers                       Phi1     Phi2     Theta 
[...]

 Sum of energy and thermal contributions
 INTERNAL ENERGY                       -229.460683 au.
 ENTHALPY                              -229.460683 au.
 GIBBS FREE ENERGY                     -229.460683 au.
 -----------------------------------------------------

 *****************************************************
 Temperature =   100.00 Kelvin, Pressure =   1.00 atm
 -----------------------------------------------------
 Molecular Partition Function and Molar Entropy:
                        q/V (M**-3)    S(kcal/mol*K)
 Electronic            1.000000E+00        0.000
 Translational         3.939934E+27       33.474
 Rotational            1.577377E+04       22.189
 Vibrational           9.052437-107        0.052
 TOTAL                 5.625873E-75       55.716

 Thermal contributions to INTERNAL ENERGY:
 Electronic           0.000 kcal/mol      0.000000 au.
 Translational        0.298 kcal/mol      0.000475 au.
 Rotational           0.298 kcal/mol      0.000475 au.
 Vibrational         48.528 kcal/mol      0.077334 au.
 TOTAL               49.124 kcal/mol      0.078284 au.

 Thermal contributions to
 ENTHALPY            49.322 kcal/mol      0.078600 au.
 GIBBS FREE ENERGY   43.751 kcal/mol      0.069721 au.

 Sum of energy and thermal contributions
 INTERNAL ENERGY                       -229.459725 au.
 ENTHALPY                              -229.459409 au.
 GIBBS FREE ENERGY                     -229.468287 au.
 -----------------------------------------------------

 *****************************************************
 Temperature =   273.15 Kelvin, Pressure =   1.00 atm
 -----------------------------------------------------
 Molecular Partition Function and Molar Entropy:
                        q/V (M**-3)    S(kcal/mol*K)
 Electronic            1.000000E+00        0.000
 Translational         1.778651E+28       38.466
 Rotational            7.120940E+04       25.185
 Vibrational           2.178538E-39        3.097
 TOTAL                 2.759263E-06       66.748

 Thermal contributions to INTERNAL ENERGY:
 Electronic           0.000 kcal/mol      0.000000 au.
 Translational        0.814 kcal/mol      0.001298 au.
 Rotational           0.814 kcal/mol      0.001298 au.
 Vibrational         49.168 kcal/mol      0.078354 au.
 TOTAL               50.796 kcal/mol      0.080949 au.

 Thermal contributions to
 ENTHALPY            51.339 kcal/mol      0.081814 au.
 GIBBS FREE ENERGY   33.107 kcal/mol      0.052759 au.

 Sum of energy and thermal contributions
 INTERNAL ENERGY                       -229.457060 au.
 ENTHALPY                              -229.456195 au.
 GIBBS FREE ENERGY                     -229.485250 au.
 -----------------------------------------------------

 *****************************************************
 Temperature =   298.15 Kelvin, Pressure =   1.00 atm
 -----------------------------------------------------
 Molecular Partition Function and Molar Entropy:
                        q/V (M**-3)    S(kcal/mol*K)
 Electronic            1.000000E+00        0.000
 Translational         2.028342E+28       38.901
 Rotational            8.120593E+04       25.446
 Vibrational           4.405538E-36        3.901
 TOTAL                 7.256511E-03       68.248

 Thermal contributions to INTERNAL ENERGY:
 Electronic           0.000 kcal/mol      0.000000 au.
 Translational        0.889 kcal/mol      0.001416 au.
 Rotational           0.889 kcal/mol      0.001416 au.
 Vibrational         49.397 kcal/mol      0.078720 au.
 TOTAL               51.175 kcal/mol      0.081552 au.

 Thermal contributions to
 ENTHALPY            51.767 kcal/mol      0.082497 au.
 GIBBS FREE ENERGY   31.419 kcal/mol      0.050070 au.

 Sum of energy and thermal contributions
 INTERNAL ENERGY                       -229.456456 au.
 ENTHALPY                              -229.455512 au.
 GIBBS FREE ENERGY                     -229.487939 au.
 -----------------------------------------------------

 *****************************************************
 Temperature =   323.15 Kelvin, Pressure =   1.00 atm
 -----------------------------------------------------
 Molecular Partition Function and Molar Entropy:
                        q/V (M**-3)    S(kcal/mol*K)
 Electronic            1.000000E+00        0.000
 Translational         2.288733E+28       39.301
 Rotational            9.163086E+04       25.686
 Vibrational           2.834348E-33        4.766
 TOTAL                 5.944155E+00       69.753

 Thermal contributions to INTERNAL ENERGY:
 Electronic           0.000 kcal/mol      0.000000 au.
 Translational        0.963 kcal/mol      0.001535 au.
 Rotational           0.963 kcal/mol      0.001535 au.
 Vibrational         49.666 kcal/mol      0.079148 au.
 TOTAL               51.593 kcal/mol      0.082218 au.

 Thermal contributions to
 ENTHALPY            52.235 kcal/mol      0.083242 au.
 GIBBS FREE ENERGY   29.694 kcal/mol      0.047321 au.

 Sum of energy and thermal contributions
 INTERNAL ENERGY                       -229.455791 au.
 ENTHALPY                              -229.454767 au.
 GIBBS FREE ENERGY                     -229.490688 au.
 -----------------------------------------------------

 *****************************************************
 Temperature =   373.15 Kelvin, Pressure =   1.00 atm
 -----------------------------------------------------
 Molecular Partition Function and Molar Entropy:
                        q/V (M**-3)    S(kcal/mol*K)
 Electronic            1.000000E+00        0.000
 Translational         2.839972E+28       40.016
 Rotational            1.137001E+05       26.114
 Vibrational           9.554119E-29        6.636
 TOTAL                 3.085073E+05       72.766

 Thermal contributions to INTERNAL ENERGY:
 Electronic           0.000 kcal/mol      0.000000 au.
 Translational        1.112 kcal/mol      0.001773 au.
 Rotational           1.112 kcal/mol      0.001773 au.
 Vibrational         50.318 kcal/mol      0.080187 au.
 TOTAL               52.542 kcal/mol      0.083732 au.

 Thermal contributions to
 ENTHALPY            53.284 kcal/mol      0.084913 au.
 GIBBS FREE ENERGY   26.131 kcal/mol      0.041643 au.

 Sum of energy and thermal contributions
 INTERNAL ENERGY                       -229.454277 au.
 ENTHALPY                              -229.453095 au.
 GIBBS FREE ENERGY                     -229.496366 au.
 -----------------------------------------------------

 *****************************************************
 Temperature =   473.15 Kelvin, Pressure =   1.00 atm
 -----------------------------------------------------
 Molecular Partition Function and Molar Entropy:
                        q/V (M**-3)    S(kcal/mol*K)
 Electronic            1.000000E+00        0.000
 Translational         4.054966E+28       41.195
 Rotational            1.623431E+05       26.822
 Vibrational           2.002123E-22       10.703
 TOTAL                 1.317989E+12       78.720

 Thermal contributions to INTERNAL ENERGY:
 Electronic           0.000 kcal/mol      0.000000 au.
 Translational        1.410 kcal/mol      0.002248 au.
 Rotational           1.410 kcal/mol      0.002248 au.
 Vibrational         52.041 kcal/mol      0.082933 au.
 TOTAL               54.862 kcal/mol      0.087428 au.

 Thermal contributions to
 ENTHALPY            55.802 kcal/mol      0.088926 au.
 GIBBS FREE ENERGY   18.556 kcal/mol      0.029570 au.

 Sum of energy and thermal contributions
 INTERNAL ENERGY                       -229.450581 au.
 ENTHALPY                              -229.449082 au.
 GIBBS FREE ENERGY                     -229.508439 au.
 -----------------------------------------------------
--


 ************************************
 *                                  *
 *       Polarizabilities           *
 *                                  *
 ************************************



       64.5334164361632361
       -0.0000000000000000     57.7540595908646424
       -0.0000000000000000     -0.0000000000000000     20.3124628772073521

++    Isotopic shifts:
      ----------------



 ****************************************
 *                                      *
 * Isotope shifted frequencies in cm-1  *
 *                                      *
 ****************************************


  Single substitutions:
  -----------------------

 Masses:
 =======
  13  12  12  12  12  12   1   1   1   1


 Frequencies:
 ============
                         1         2         3         4         5         6

            Freq.      i0.92     i0.03     i0.01      0.07      0.36      2.74                                               


                         7         8         9        10        11        12

            Freq.     431.35    471.73    604.89    648.70    650.23    755.12                                               


                        13        14        15        16        17        18

            Freq.     784.98    936.31    966.23    992.30   1007.36   1015.20                                               


                        19        20        21        22        23        24

            Freq.    1102.46   1197.16   1253.12   1373.26   1409.01   1432.25                                               


                        25        26        27        28        29        30

            Freq.    1551.90   1713.32   3377.51   3384.62   3395.44   3399.35                                               


 Masses:
 =======
  14  12  12  12  12  12   1   1   1   1


 Frequencies:
 ============
                         1         2         3         4         5         6

            Freq.      i0.91     i0.03     i0.01      0.07      0.36      2.72                                               


                         7         8         9        10        11        12

            Freq.     428.09    471.10    599.39    646.05    647.97    753.69                                               


                        13        14        15        16        17        18

            Freq.     783.93    934.45    964.77    978.96   1002.97   1015.20                                               


                        19        20        21        22        23        24

            Freq.    1098.09   1193.21   1250.42   1372.76   1406.49   1426.23                                               


                        25        26        27        28        29        30

            Freq.    1546.75   1707.97   3369.70   3384.61   3394.13   3399.32                                               


 Masses:
 =======
  12  12  12  12  13  12   1   1   1   1


 Frequencies:
 ============
                         1         2         3         4         5         6

            Freq.      i0.93     i0.03     i0.01      0.07      0.36      2.74                                               


                         7         8         9        10        11        12

            Freq.     434.76    466.65    609.31    645.01    646.55    756.70                                               


                        13        14        15        16        17        18

            Freq.     785.35    938.35    968.27   1000.27   1003.62   1015.16                                               


                        19        20        21        22        23        24

            Freq.    1106.02   1200.33   1251.24   1367.29   1399.90   1434.86                                               


                        25        26        27        28        29        30

            Freq.    1555.47   1705.27   3384.27   3384.92   3398.63   3399.88                                               


 Masses:
 =======
  12  12  12  12  14  12   1   1   1   1


 Frequencies:
 ============
                         1         2         3         4         5         6

            Freq.      i0.93     i0.03     i0.01      0.07      0.35      2.73                                               


                         7         8         9        10        11        12

            Freq.     434.76    461.23    608.31    637.46    642.33    756.70                                               


                        13        14        15        16        17        18

            Freq.     784.57    938.34    968.27    986.93   1003.60   1015.16                                               


                        19        20        21        22        23        24

            Freq.    1105.15   1199.65   1244.92   1357.78   1393.27   1431.06                                               


                        25        26        27        28        29        30

            Freq.    1553.33   1693.70   3384.27   3384.91   3398.62   3399.87                                               


 Masses:
 =======
  12  12  12  12  12  12   2   1   1   1


 Frequencies:
 ============
                         1         2         3         4         5         6

            Freq.      i0.90     i0.03     i0.01      0.07      0.36      2.71                                               


                         7         8         9        10        11        12

            Freq.     415.84    462.94    604.86    620.68    647.21    677.62                                               


                        13        14        15        16        17        18

            Freq.     773.05    889.80    891.15    956.41   1006.00   1014.42                                               


                        19        20        21        22        23        24

            Freq.    1028.77   1145.30   1232.38   1323.98   1400.38   1431.35                                               


                        25        26        27        28        29        30

            Freq.    1534.75   1713.83   2505.74   3384.59   3391.97   3399.29                                               


 Masses:
 =======
  12  12  12  12  12  12   3   1   1   1


 Frequencies:
 ============
                         1         2         3         4         5         6

            Freq.      i0.88     i0.03     i0.01      0.07      0.36      2.66                                               


                         7         8         9        10        11        12

            Freq.     390.45    458.45    581.89    598.90    637.31    666.86                                               


                        13        14        15        16        17        18

            Freq.     771.41    772.32    882.96    955.87    990.33   1013.27                                               


                        19        20        21        22        23        24

            Freq.    1018.45   1138.91   1229.56   1318.08   1395.94   1430.64                                               


                        25        26        27        28        29        30

            Freq.    1528.30   1707.25   2146.53   3384.59   3391.95   3399.29                                               



  Full substitutions:
  -----------------------

 Masses:
 =======
  12  12  12  12  12  12   2   2   2   2


 Frequencies:
 ============
                         1         2         3         4         5         6

            Freq.      i0.84     i0.03     i0.01      0.07      0.35      2.57                                               


                         7         8         9        10        11        12

            Freq.     384.63    419.43    587.32    588.33    589.86    630.30                                               


                        13        14        15        16        17        18

            Freq.     643.01    766.14    774.19    832.19    863.93    896.14                                               


                        19        20        21        22        23        24

            Freq.     993.21    998.71   1050.58   1098.49   1353.37   1382.30                                               


                        25        26        27        28        29        30

            Freq.    1411.57   1692.54   2498.54   2499.43   2511.53   2513.36                                               


 Masses:
 =======
  12  12  12  12  12  12   3   3   3   3


 Frequencies:
 ============
                         1         2         3         4         5         6

            Freq.      i0.78     i0.03     i0.01      0.07      0.34      2.42                                               


                         7         8         9        10        11        12

            Freq.     342.93    373.22    520.37    520.51    570.51    595.15                                               


                        13        14        15        16        17        18

            Freq.     605.13    696.41    709.61    732.34    732.67    774.54                                               


                        19        20        21        22        23        24

            Freq.     914.78    955.01    969.98   1071.26   1325.81   1370.06                                               


                        25        26        27        28        29        30

            Freq.    1375.18   1662.74   2140.40   2143.92   2149.74   2149.95                                               


 Masses:
 =======
  13  13  13  13  13  13   1   1   1   1


 Frequencies:
 ============
                         1         2         3         4         5         6

            Freq.      i0.90     i0.03     i0.01      0.07      0.35      2.66                                               


                         7         8         9        10        11        12

            Freq.     421.49    457.44    587.89    628.29    629.10    750.59                                               


                        13        14        15        16        17        18

            Freq.     778.69    930.76    959.46    971.66    977.95    978.36                                               


                        19        20        21        22        23        24

            Freq.    1083.99   1181.71   1231.68   1362.79   1374.68   1402.82                                               


                        25        26        27        28        29        30

            Freq.    1526.69   1657.05   3373.67   3374.43   3387.59   3388.73                                               


 Masses:
 =======
  14  14  14  14  14  14   1   1   1   1


 Frequencies:
 ============
                         1         2         3         4         5         6

            Freq.      i0.87     i0.03     i0.01      0.06      0.34      2.58                                               


                         7         8         9        10        11        12

            Freq.     409.30    443.60    567.80    606.46    608.57    745.34                                               


                        13        14        15        16        17        18

            Freq.     772.42    924.63    941.70    944.34    945.32    952.08                                               


                        19        20        21        22        23        24

            Freq.    1061.22   1159.93   1205.35   1347.27   1352.27   1375.05                                               


                        25        26        27        28        29        30

            Freq.    1500.98   1601.70   3364.71   3365.55   3378.23   3379.28                                               


--


      The response parameters are written to the file RESP.
--- Stop Module: mclr at Mon Jul  8 13:30:01 2024 /rc=_RC_ALL_IS_WELL_ ---
*** files: product.freq.molden product.UnSym xmldump
    saved to directory /home/kenya/molcas_test/exercise_1
--- Module mclr spent 8 minutes 9 seconds ---

.##################.
.# Happy landing! #.
.##################.

    Timing: Wall=627.84 User=340.62 System=6.43
