   This run of MOLCAS is using the pymolcas driver

                             OPE
                             OPE          NMOL  CASOP  ENMOLC A   SO
                 OPE        NMOLC        AS  OP EN  MO LC     AS  OP
                OPENM       OL CA        SO  PE NM  OL CA     SOP EN
                OP EN      MO   LC       AS  OP ENMOL  CASO   PENMOL
                OP  EN     MO   LC       AS  OP EN     MO     LC ASO
               OP   E  NMOL  C  AS       OP  EN MO     LC     AS  OP
               OP  E   NMO   LC AS        OPEN  MO     LCASOP EN   M
               O  PEN   MO  LCA  SO
            OPE   NMO   L   CAS    OP
        OPENMOL  CASOP     ENMOL   CASOPE
     OPENMOLCA   SOPENMOLCASOPEN   MOLCASOPE
    OPENMOLCAS   OP           EN   MOL    CAS
    OPENMOLCAS       OP  ENM        O     LCA
    OPENMOLCAS    OPEN  MOLCASO     P  E  NMO
    OPENMOLCAS     OP               E  N  MOL
    OPENMOLCA   SO           PENM   O  L  CAS    OPEN    MO    LCAS
    OPENMOLCA   SOP           ENM   O  L  CAS   OP  EN  MOLC  AS   O
    OPENMOLCA   SOPE           NM      O  LCA   S      OP  EN MO
    OPENMOLC                AS         O  PEN   M      OL  CA  SOPE
    OPENMO        LCASOPE  NMOL        C  ASO   P      ENMOLC     AS
    OPE     NMO      LCA  SO     P     E   NM   OL  CA SO  PE N   MO
          OPENMOLCA            SOPE   NMO        LCAS  O    P  ENMO
     OPENMOLCASOPENMOLCASOPENMOLCASOPENMOLCA
        OPENMOLCASOPENMOLCASOPENMOLCASOPE
            OPENMOLCASOPENMOLCASOPENM
               OPENMOLCASOPENMOLCA        version: 24.02
                   OPENMOLCASO
                       OPE                tag: 428-g03afa2e9a

 OpenMolcas is free software; you can redistribute it and/or modify it
 under the terms of the GNU Lesser General Public License version 2.1.
 OpenMolcas is distributed in the hope that it will be useful, but it
 is provided "as is" and without any express or implied warranties.
 For more details see the full text of the license in the file
 LICENSE or in <http://www.gnu.org/licenses/>.

                 Copyright (C) The OpenMolcas Authors
           For the author list and the recommended citation,
                   consult the file CONTRIBUTORS.md

           *************************************************
           * pymolcas version py2.28                       *
           *   build c4a6d18ded8cb6cad61d2372a9abd97c      *
           *   (after the EMIL interpreter by V. Veryazov) *
           *************************************************

configuration info
------------------
Host name: DESKTOP-ET1S6F4 (Linux)
C Compiler ID: GNU
C flags: -std=gnu99 -fopenmp
Fortran Compiler ID: GNU
Fortran flags: -fno-aggressive-loop-optimizations -cpp -fdefault-integer-8 -fopenmp
Definitions: _WARNING_WORKAROUND_;_MOLCAS_;_I8_;_LINUX_
Parallel: OFF (GA=OFF)


   ----------------------------------------------------------------------
  |
  |           Project: product_symmetry
  |    Submitted from: /home/kenya/molcas_test/exercise_1
  |      Scratch area: /tmp/product_symmetry
  |   Save outputs to: /home/kenya/molcas_test/exercise_1
  |            Molcas: /home/kenya/OpenMolcas/builds/gnu_dev_omp
  |
  | Scratch area is NOT empty
  |
  |    MOLCAS_DRIVER = /home/kenya/OpenMolcas/builds/gnu_dev_omp/pymolcas
  |    MOLCAS_NPROCS = 1
  |    MOLCAS_SOURCE = /home/kenya/OpenMolcas
  | MOLCAS_STRUCTURE = 0
  |
   ----------------------------------------------------------------------

++ ---------   Input file   ---------

&GATEWAY
        Coord = product.Opt.xyz
        Basis = 6-31G*
        Group = Full
        NoCD

>>> COPY $CurrDir/product.RasOrb INPORB

&SEWARD

&SCF

>>> FOREACH sym IN (1, 2, 3, 4, 5, 6, 7, 8)

  >>> FOREACH spin IN (1, 3)

    &RASSCF
        LUMORB
            Inactive = 4 3 4 3 0 0 0 0
            RAS2 = 2 1 2 1 2 1 2 1
            nActEl = 12
            symmetry = $sym
            Spin = $spin

  >>> END FOREACH

>>> END FOREACH

-- ----------------------------------

--- Start Module: gateway at Wed Jul 17 11:18:00 2024 ---

()()()()()()()()()()()()()()()()()()()()()()()()()()()()()()()()()()()()()()()()()()()()()()()()()()

                                              &GATEWAY

                                   only a single process is used
                       available to each process: 2.0 GB of memory, 1 thread
                                            pid: 227069
()()()()()()()()()()()()()()()()()()()()()()()()()()()()()()()()()()()()()()()()()()()()()()()()()()

      Found SYMMETRY generators: x y z

++    Symmetry information:
      ---------------------

                    --- Group Generators ---
                    Reflection in the yz-plane  
                    Reflection in the xz-plane  
                    Reflection in the xy-plane  

                    Character Table for D2h

                             E   s(yz) s(xz) C2(z) s(xy) C2(y) C2(x)   i  
                    ag       1     1     1     1     1     1     1     1  
                    b3u      1    -1     1    -1     1    -1     1    -1  x
                    b2u      1     1    -1    -1     1     1    -1    -1  y
                    b1g      1    -1    -1     1     1    -1    -1     1  xy, Rz
                    b1u      1     1     1     1    -1    -1    -1    -1  z
                    b2g      1    -1     1    -1    -1     1    -1     1  xz, Ry
                    b3g      1     1    -1    -1    -1    -1     1     1  yz, Rx
                    au       1    -1    -1     1    -1     1     1    -1  I
--


++    Basis set information:
      ----------------------


      Basis set label: C.6-31G**....

      Electronic valence basis set:
      ------------------
      Associated Effective Charge   6.000000 au
      Associated Actual Charge      6.000000 au
      Nuclear Model: Point charge

      Shell  nPrim  nBasis  Cartesian Spherical Contaminant
         s      10       3        X                  
         p       4       2        X                  
         d       1       1        X                  


      Basis set label: H.6-31G....

      Electronic valence basis set:
      ------------------
      Associated Effective Charge   1.000000 au
      Associated Actual Charge      1.000000 au
      Nuclear Model: Point charge

      Shell  nPrim  nBasis  Cartesian Spherical Contaminant
         s       4       2        X                  
--


++    Molecular structure info:
      -------------------------

                    ************************************************ 
                    **** Cartesian Coordinates / Bohr, Angstrom **** 
                    ************************************************ 

     Center  Label                x              y              z                     x              y              z
        1      C1               2.299387      -1.364491       0.000000              1.216783      -0.722058       0.000000
        2      C1              -2.299387      -1.364491       0.000000             -1.216783      -0.722058       0.000000
        3      C1               2.299387       1.364491       0.000000              1.216783       0.722058       0.000000
        4      C1              -2.299387       1.364491       0.000000             -1.216783       0.722058       0.000000
        5      C2               0.000000      -2.578161       0.000000              0.000000      -1.364304       0.000000
        6      C2               0.000000       2.578161       0.000000              0.000000       1.364304       0.000000
        7      H3               4.071002       2.353738       0.000000              2.154282       1.245545       0.000000
        8      H3              -4.071002       2.353738       0.000000             -2.154282       1.245545       0.000000
        9      H3               4.071002      -2.353738       0.000000              2.154282      -1.245545       0.000000
       10      H3              -4.071002      -2.353738       0.000000             -2.154282      -1.245545       0.000000

                    *************************************** 
                    *    InterNuclear Distances / Bohr    * 
                    *************************************** 

               1 C1            2 C1            3 C1            4 C1            5 C2            6 C2    
    1 C1       0.000000
    2 C1       4.598774        0.000000
    3 C1       2.728983        5.347530        0.000000
    4 C1       5.347530        2.728983        4.598774        0.000000
    5 C2       2.600034        2.600034        4.564175        4.564175        0.000000
    6 C2       4.564175        4.564175        2.600034        2.600034        5.156322        0.000000
    7 H3       4.118720        7.376116        2.029096        6.446741        6.395052        4.077184
    8 H3       7.376116        4.118720        6.446741        2.029096        6.395052        4.077184
    9 H3       2.029096        6.446741        4.118720        7.376116        4.077184        6.395052
   10 H3       6.446741        2.029096        7.376116        4.118720        4.077184        6.395052

               7 H3            8 H3            9 H3           10 H3    
    7 H3       0.000000
    8 H3       8.142005        0.000000
    9 H3       4.707476        9.404923        0.000000
   10 H3       9.404923        4.707476        8.142005        0.000000

                    ******************************************* 
                    *    InterNuclear Distances / Angstrom    * 
                    ******************************************* 

               1 C1            2 C1            3 C1            4 C1            5 C2            6 C2    
    1 C1       0.000000
    2 C1       2.433567        0.000000
    3 C1       1.444116        2.829791        0.000000
    4 C1       2.829791        1.444116        2.433567        0.000000
    5 C2       1.375879        1.375879        2.415257        2.415257        0.000000
    6 C2       2.415257        2.415257        1.375879        1.375879        2.728608        0.000000
    7 H3       2.179533        3.903273        1.073751        3.411469        3.384116        2.157553
    8 H3       3.903273        2.179533        3.411469        1.073751        3.384116        2.157553
    9 H3       1.073751        3.411469        2.179533        3.903273        2.157553        3.384116
   10 H3       3.411469        1.073751        3.903273        2.179533        2.157553        3.384116

               7 H3            8 H3            9 H3           10 H3    
    7 H3       0.000000
    8 H3       4.308563        0.000000
    9 H3       2.491089        4.976871        0.000000
   10 H3       4.976871        2.491089        4.308563        0.000000

                    ************************************** 
                    *    Valence Bond Angles / Degree    * 
                    ************************************** 
                          Atom centers                 Phi
                      3 C1       1 C1       5 C2       117.83
                      3 C1       1 C1       9 H3       119.18
                      5 C2       1 C1       9 H3       123.00
                      4 C1       2 C1       5 C2       117.83
                      4 C1       2 C1      10 H3       119.18
                      5 C2       2 C1      10 H3       123.00
                      1 C1       3 C1       6 C2       117.83
                      1 C1       3 C1       7 H3       119.18
                      6 C2       3 C1       7 H3       123.00
                      2 C1       4 C1       6 C2       117.83
                      2 C1       4 C1       8 H3       119.18
                      6 C2       4 C1       8 H3       123.00
                      1 C1       5 C2       2 C1       124.35
                      3 C1       6 C2       4 C1       124.35

           ***************************************************************
           *              Valence Dihedral Angles / Degree               *
           ***************************************************************
                    Atom centers                       Phi1     Phi2     Theta 
           5 C2       1 C1       3 C1       6 C2        117.83   117.83    -0.00
           5 C2       1 C1       3 C1       7 H3        117.83   119.18  -180.00
           5 C2       2 C1       4 C1       6 C2        117.83   117.83    -0.00
           5 C2       2 C1       4 C1       8 H3        117.83   119.18  -180.00
           6 C2       3 C1       1 C1       9 H3        117.83   119.18  -180.00
           7 H3       3 C1       1 C1       9 H3        119.18   119.18     0.00
           1 C1       3 C1       6 C2       4 C1        117.83   124.35    -0.00
           6 C2       4 C1       2 C1      10 H3        117.83   119.18  -180.00
           8 H3       4 C1       2 C1      10 H3        119.18   119.18    -0.00
           2 C1       4 C1       6 C2       3 C1        117.83   124.35    -0.00
           2 C1       5 C2       1 C1       3 C1        124.35   117.83    -0.00
           2 C1       5 C2       1 C1       9 H3        124.35   123.00  -180.00
           1 C1       5 C2       2 C1       4 C1        124.35   117.83    -0.00
           1 C1       5 C2       2 C1      10 H3        124.35   123.00  -180.00
           4 C1       6 C2       3 C1       7 H3        124.35   123.00  -180.00
           3 C1       6 C2       4 C1       8 H3        124.35   123.00  -180.00
--


            Nuclear Potential Energy            184.57364921 au

--- Stop Module: gateway at Wed Jul 17 11:18:00 2024 /rc=_RC_ALL_IS_WELL_ ---
*** files: xmldump
    saved to directory /home/kenya/molcas_test/exercise_1

>>> COPY /home/kenya/molcas_test/exercise_1/product.RasOrb INPORB

--- Start Module: seward at Wed Jul 17 11:18:00 2024 ---

()()()()()()()()()()()()()()()()()()()()()()()()()()()()()()()()()()()()()()()()()()()()()()()()()()

                                              &SEWARD

                                   only a single process is used
                       available to each process: 2.0 GB of memory, 1 thread
                                            pid: 227073
()()()()()()()()()()()()()()()()()()()()()()()()()()()()()()()()()()()()()()()()()()()()()()()()()()

               SEWARD will generate:
                  Multipole Moment integrals up to order  2
                  Kinetic Energy integrals
                  Nuclear Attraction integrals (point charge)
                  One-Electron Hamiltonian integrals
                  Velocity integrals
                  Orbital angular momentum around ( 0.0000  0.0000  0.0000 )
                  Velocity quadrupole around ( 0.0000  0.0000  0.0000 )
                  Two-Electron Repulsion integrals

                   Integrals are discarded if absolute value <: 1.00E-14
                   Integral cutoff threshold is set to       <: 1.00E-16

                    Unitary symmetry adaptation


            Nuclear Potential Energy            184.57364921 au


      Basis set specifications :
      Symmetry species         ag   b3u  b2u  b1g  b1u  b2g  b3g  au 
      Basis functions           21   16   21   16    7    5    7    5


      Input file to MOLDEN was generated!

--- Stop Module: seward at Wed Jul 17 11:18:02 2024 /rc=_RC_ALL_IS_WELL_ ---
*** files: product_symmetry.GssOrb product_symmetry.guessorb.molden xmldump
    saved to directory /home/kenya/molcas_test/exercise_1
--- Module seward spent 1 second ---

--- Start Module: scf at Wed Jul 17 11:18:02 2024 ---

()()()()()()()()()()()()()()()()()()()()()()()()()()()()()()()()()()()()()()()()()()()()()()()()()()

                                                &SCF

                                   only a single process is used
                       available to each process: 2.0 GB of memory, 1 thread
                                            pid: 227142
()()()()()()()()()()()()()()()()()()()()()()()()()()()()()()()()()()()()()()()()()()()()()()()()()()

++    Input section:
      --------------

      Header of the integral files:
      
       Integrals generated by Gateway/Seward, Wed Jul 17 11:18:00 2024


      Cartesian coordinates in Angstrom:
      -----------------------------------------------------
      No.  Label        X            Y            Z        
      -----------------------------------------------------
       1   C1         1.21678328  -0.72205777   0.00000000
       2   C2         0.00000000  -1.36430413   0.00000000
       3   H3         2.15428172   1.24554454   0.00000000
       4   C1        -1.21678328  -0.72205777   0.00000000
       5   C1         1.21678328   0.72205777   0.00000000
       6   C1        -1.21678328   0.72205777   0.00000000
       7   C2         0.00000000   1.36430413   0.00000000
       8   H3        -2.15428172   1.24554454   0.00000000
       9   H3         2.15428172  -1.24554454   0.00000000
      10   H3        -2.15428172  -1.24554454   0.00000000
      -----------------------------------------------------
      Nuclear repulsion energy =  184.57364921
--

++    Orbital specifications:
      -----------------------

      Symmetry species               1   2   3   4   5   6   7   8
                                    ag b3u b2u b1g b1u b2g b3g  au
      Frozen orbitals                0   0   0   0   0   0   0   0
      Aufbau                        20
      Start temperature = 0.500
      End temperature   = 0.010
      Temperature Factor= 0.460
      Deleted orbitals               0   0   0   0   0   0   0   0
      Total number of orbitals      21  16  21  16   7   5   7   5
      Number of basis functions     21  16  21  16   7   5   7   5
--

      Molecular charge                           0.000

++    Optimization specifications:
      ----------------------------

      SCF Algorithm: Conventional
      Minimized density differences are used
      Number of density matrices in core                 5
      Maximum number of NDDO SCF iterations            400
      Maximum number of HF SCF iterations              400
      Threshold for SCF energy change             1.00E-09
      Threshold for density matrix                1.00E-04
      Threshold for Fock matrix                   1.50E-04
      Threshold for linear dependence             1.00E-09
      Threshold at which DIIS is turned on        1.50E-01
      Maximum depth in the DIIS procedure                5
      Maximum depth in the BFGS Hessian update          30
      Threshold at which QNR/C2DIIS is turned on  7.50E-02
      Threshold for Norm(delta) (QNR/C2DIIS)      1.00E-03
      All orbitals punched on: SCFORB
--

      Input vectors read from INPORB
      Orbital file label: * RASSCF average (pseudo-natural) orbita


++ Convergence information
                                   SCF        iterations: Energy and convergence statistics

Iter     Tot. SCF        One-elec.       Two-elec.     Energy      Max Dij or  Max Fij      DNorm      TNorm      AccCon     Time
         Energy          Energy          Energy        Change      Delta Norm                                                in Sec.
   1  -217.746463211  -654.235940457   251.915828031   0.00E+00    8.57E-02*   2.21E-01*    9.16E+01   2.51E+02   None         0.
   2  -225.511129414  -673.966481406   263.881702777  -7.76E+00*   1.15E-01*   1.37E-01*    7.87E+00   2.57E+02   EDIIS        0.
   3  -228.451541563  -670.432599140   257.407408363  -2.94E+00*   6.23E-02*   6.42E-02*    4.22E+00   2.54E+02   EDIIS        0.
   4  -229.082873295  -675.194201502   261.537678993  -6.31E-01*   5.20E-02*   5.60E-02*    2.58E+00   2.56E+02   EDIIS        0.
   5  -229.220062903  -673.184239662   259.390527544  -1.37E-01*   4.41E-02*   3.13E-02*    1.03E+00   2.55E+02   EDIIS        0.
   6  -229.257231521  -673.990562652   260.159681917  -3.72E-02*   2.84E-02*   2.16E-02*    3.63E-01   2.55E+02   EDIIS        0.
   7  -229.258457518  -673.708831605   259.876724872  -1.23E-03*   2.18E-02*   1.30E-02*    1.72E-01   2.55E+02   EDIIS        0.

       Fermi aufbau procedure completed!
      nOcc=    5    4    5    3    1    1    1    0

   8  -229.258765471  -673.795027505   259.962612819  -3.08E-04*   9.85E-03*   8.35E-03*    3.28E-02   2.55E+02   EDIIS        0.
   9  -229.258873515  -673.781143120   259.948620391  -1.08E-04*   6.36E-03*   4.48E-03*    8.35E-03   2.55E+02   EDIIS        0.
  10  -229.258911858  -673.774155782   259.941594710  -3.83E-05*   2.98E-03*   2.59E-03*    2.37E-03   2.55E+02   EDIIS        0.
  11  -229.258920878  -673.783923684   259.951353592  -9.02E-06*   1.70E-03*   5.89E-04*    4.81E-04   2.55E+02   EDIIS        0.
  12  -229.258924724  -673.777237102   259.944663164  -3.85E-06*   3.61E-04*   1.85E-04*    8.29E-05   2.55E+02   c2DIIS       0.
  13  -229.258925645  -673.779756505   259.947181646  -9.21E-07*   1.31E-04    5.93E-05     1.64E-05   2.55E+02   QNRc2DIIS    0.
  14  -229.258925681  -673.779566829   259.946991934  -3.63E-08*   1.35E-04    2.66E-05     1.32E-03   2.55E+02   QNRc2DIIS    0.
  15  -229.258925693  -673.779775525   259.947200618  -1.21E-08*   9.24E-06    3.29E-06     5.87E-05   2.55E+02   QNRc2DIIS    0.
  16  -229.258925693  -673.779662713   259.947087806  -2.74E-10    2.41E-06    6.32E-07     1.42E-02   2.55E+02   QNRc2DIIS    0.

       Convergence after  16 Macro Iterations
--

 *****************************************************************************************************************************
 *                                                                                                                           *
 *                                             SCF/KS-DFT Program, Final results                                             *
 *                                                                                                                           *
 *                                                                                                                           *
 *                                                                                                                           *
 *                                                       Final Results                                                       *
 *                                                                                                                           *
 *****************************************************************************************************************************

::    Total SCF energy                               -229.2589256931
      One-electron energy                            -673.7796627131
      Two-electron energy                             259.9470878057
      Nuclear repulsion energy                        184.5736492143
      Kinetic energy (interpolated)                   228.7558869137
      Virial theorem                                    1.0021990200
      Total spin, S(S+1)                                0.0000000000
      Total spin, S                                     0.0000000000
      Max non-diagonal density matrix element           0.0000024375
      Max non-diagonal Fock matrix element              0.0000001924


      All orbitals with orbital energies smaller than  E(LUMO)+0.5 are printed

++    Molecular orbitals:
      -------------------

      Title: SCF orbitals

      Molecular orbitals for symmetry species 1: ag 

          Orbital            1         2         3         4         5         6         7         8    
          Energy          -11.2695  -11.2604   -1.1558   -0.7944   -0.6534   -0.0350    0.2578    0.4225
          Occ. No.          2.0000    2.0000    2.0000    2.0000    2.0000    0.0000    0.0000    0.0000

        1 C1     1s         0.9904   -0.1011   -0.1870   -0.0876   -0.0178    0.0063    0.1018    0.0890
        2 C1     2s         0.0268   -0.0033    0.3611    0.1778    0.0457    0.0173   -0.1601   -0.0322
        3 C1     *s        -0.0085    0.0073    0.2299    0.1667   -0.0039   -0.2282   -1.4819   -2.4690
        4 C1     2px        0.0001    0.0004   -0.1045    0.3775   -0.1618   -0.1182   -0.1591    0.1145
        5 C1     *px        0.0005   -0.0037   -0.0092    0.1388   -0.0761   -0.0202   -0.8305    2.1583
        6 C1     2py       -0.0000    0.0001    0.0656    0.1613    0.4666   -0.3288    0.2222   -0.0456
        7 C1     *py        0.0008   -0.0001    0.0111    0.0406    0.1841   -0.1834    0.7343    0.7334
        8 C1     *200      -0.0010   -0.0002    0.0083   -0.0002   -0.0119    0.0210    0.0090    0.0134
        9 C1     *110       0.0000   -0.0003    0.0012   -0.0162   -0.0027   -0.0338   -0.0079    0.0318
       10 C1     *020      -0.0013   -0.0001    0.0083    0.0096    0.0085   -0.0184   -0.0031   -0.0208
       11 C1     *002      -0.0014   -0.0000   -0.0099   -0.0038   -0.0001    0.0008   -0.0006    0.0056
       12 C2     1s         0.1003    0.9908   -0.1263    0.1255    0.0808    0.0610   -0.0181   -0.1516
       13 C2     2s         0.0022    0.0266    0.2443   -0.2571   -0.1662   -0.0924    0.0254    0.1586
       14 C2     *s         0.0041   -0.0141    0.1447   -0.1842   -0.1985   -0.3008    0.0821    4.0759
       15 C2     2py       -0.0001    0.0009    0.1004   -0.0569    0.1549    0.4477   -0.0085    0.0730
       16 C2     *py        0.0010   -0.0037    0.0153    0.0124    0.0736    0.5352   -0.4530    1.5734
       17 C2     *200      -0.0003   -0.0005    0.0074   -0.0036   -0.0099    0.0087   -0.0161    0.0138
       18 C2     *020      -0.0003   -0.0012    0.0003    0.0012    0.0122    0.0037    0.0092    0.0001
       19 C2     *002      -0.0002   -0.0012   -0.0068    0.0044    0.0006   -0.0033    0.0016   -0.0018
       20 H3     1s        -0.0003   -0.0000    0.0736    0.2022   -0.1903    0.1561    0.0201   -0.0286
       21 H3     *s         0.0020    0.0007    0.0064    0.0887   -0.1176    0.2984    2.1301   -0.6126

      Molecular orbitals for symmetry species 2: b3u

          Orbital            1         2         3         4         5    
          Energy          -11.2695   -1.0271   -0.6324   -0.5830    0.2796
          Occ. No.          2.0000    2.0000    2.0000    2.0000    0.0000

        1 C1     1s         0.9955   -0.2196    0.0201    0.0272    0.0695
        2 C1     2s         0.0273    0.4290   -0.0417   -0.0624   -0.0322
        3 C1     *s        -0.0089    0.3417   -0.0604   -0.0433   -2.0063
        4 C1     2px       -0.0001    0.0136    0.4687    0.1410   -0.3119
        5 C1     *px        0.0009    0.0141    0.1953    0.0843   -0.8509
        6 C1     2py       -0.0000    0.1025    0.1531   -0.5515    0.1553
        7 C1     *py        0.0009    0.0116    0.0652   -0.2309    0.8422
        8 C1     *200      -0.0011    0.0050    0.0052    0.0170   -0.0022
        9 C1     *110      -0.0000   -0.0039   -0.0166   -0.0027   -0.0146
       10 C1     *020      -0.0013    0.0131    0.0013   -0.0126    0.0013
       11 C1     *002      -0.0013   -0.0106    0.0003   -0.0003    0.0049
       12 C2     2px       -0.0002    0.1746   -0.3785    0.1511   -0.0085
       13 C2     *px        0.0020    0.0143   -0.0837    0.0482    0.4433
       14 C2     *110      -0.0000    0.0173   -0.0252   -0.0108    0.0182
       15 H3     1s        -0.0003    0.1374    0.1839    0.2159    0.0146
       16 H3     *s         0.0017    0.0256    0.1273    0.1521    2.3398

      Molecular orbitals for symmetry species 3: b2u

          Orbital            1         2         3         4         5         6    
          Energy          -11.2687  -11.2604   -1.0028   -0.6523   -0.2661    0.3001
          Occ. No.          2.0000    2.0000    2.0000    2.0000    2.0000    0.0000

        1 C1     1s         0.9896   -0.1124   -0.1453    0.0772   -0.0792   -0.0920
        2 C1     2s         0.0273   -0.0036    0.2864   -0.1569    0.2010    0.2311
        3 C1     *s        -0.0215    0.0171    0.2170   -0.1564    0.1549    0.0182
        4 C1     2px       -0.0001    0.0003   -0.1357   -0.3964   -0.1261    0.1834
        5 C1     *px        0.0042   -0.0078   -0.0009   -0.2354    0.2157    2.6390
        6 C1     2py        0.0004    0.0002   -0.1583    0.1092    0.0510   -0.1248
        7 C1     *py       -0.0039    0.0023   -0.0320    0.0597    0.1600   -0.9608
        8 C1     *200      -0.0007   -0.0003    0.0155   -0.0078    0.0171   -0.0144
        9 C1     *110       0.0001   -0.0003    0.0095    0.0379   -0.0126   -0.0105
       10 C1     *020      -0.0006   -0.0004   -0.0061   -0.0005   -0.0196   -0.0041
       11 C1     *002      -0.0012   -0.0000   -0.0068    0.0037    0.0015    0.0073
       12 C2     1s         0.1115    0.9896   -0.1761   -0.0856    0.0713    0.0083
       13 C2     2s         0.0027    0.0269    0.3464    0.1792   -0.1365   -0.1375
       14 C2     *s         0.0094   -0.0208    0.2653    0.0917   -0.0349    1.9495
       15 C2     2py       -0.0001    0.0010    0.0935    0.0979    0.5129   -0.1200
       16 C2     *py        0.0032   -0.0061    0.0225    0.0009    0.5500    0.9285
       17 C2     *200      -0.0005   -0.0005    0.0111   -0.0031    0.0020    0.0165
       18 C2     *020      -0.0004   -0.0011   -0.0031    0.0028    0.0116   -0.0021
       19 C2     *002      -0.0002   -0.0011   -0.0080   -0.0030   -0.0045   -0.0084
       20 H3     1s         0.0003   -0.0001   -0.0865    0.3154   -0.0402    0.0454
       21 H3     *s        -0.0011   -0.0013   -0.0128    0.1731    0.0445    2.9446

      Molecular orbitals for symmetry species 4: b1g

          Orbital            1         2         3         4         5    
          Energy          -11.2686   -0.8432   -0.5329    0.3172    0.4523
          Occ. No.          2.0000    2.0000    2.0000    0.0000    0.0000

        1 C1     1s         0.9959   -0.1789   -0.0078   -0.1332    0.1278
        2 C1     2s         0.0273    0.3618    0.0239    0.1714   -0.1357
        3 C1     *s        -0.0165    0.3322    0.0023    2.4522   -3.1677
        4 C1     2px       -0.0001   -0.0064   -0.4780    0.1996    0.2591
        5 C1     *px        0.0017    0.0536   -0.2679    1.5272    1.3809
        6 C1     2py        0.0003   -0.2195   -0.0230   -0.0041   -0.2799
        7 C1     *py       -0.0021   -0.0874   -0.0349   -0.0747   -2.8470
        8 C1     *200      -0.0008    0.0144   -0.0096    0.0078   -0.0199
        9 C1     *110       0.0001   -0.0019    0.0443   -0.0117   -0.0117
       10 C1     *020      -0.0006   -0.0040    0.0002   -0.0116    0.0159
       11 C1     *002      -0.0012   -0.0078    0.0009   -0.0013   -0.0020
       12 C2     2px       -0.0002    0.2950    0.3616   -0.0766   -0.0131
       13 C2     *px        0.0021    0.0482    0.0876   -0.2745    0.5661
       14 C2     *110      -0.0002    0.0171    0.0253    0.0124   -0.0453
       15 H3     1s         0.0002   -0.1948    0.2805   -0.0114    0.0231
       16 H3     *s        -0.0016   -0.0521    0.2227    2.5301    1.5892

      Molecular orbitals for symmetry species 5: b1u

          Orbital            1         2    
          Energy           -0.5107    0.1568
          Occ. No.          2.0000    0.0000

        1 C1     2pz        0.4312   -0.3041
        2 C1     *pz        0.2856   -0.5843
        3 C1     *101      -0.0206   -0.0449
        4 C1     *011       0.0126   -0.0468
        5 C2     2pz        0.2962    0.4573
        6 C2     *pz        0.1669    0.8056
        7 C2     *011       0.0213   -0.0012

      Molecular orbitals for symmetry species 6: b2g

          Orbital            1    
          Energy           -0.3477
          Occ. No.          2.0000

        1 C1     2pz        0.5504
        2 C1     *pz        0.4631
        3 C1     *101      -0.0019
        4 C1     *011       0.0276
        5 C2     *101       0.0315

      Molecular orbitals for symmetry species 7: b3g

          Orbital            1         2    
          Energy           -0.3440    0.3568
          Occ. No.          2.0000    0.0000

        1 C1     2pz        0.3449   -0.4772
        2 C1     *pz        0.2987   -1.2782
        3 C1     *101      -0.0282   -0.0374
        4 C1     *011      -0.0270    0.0123
        5 C2     2pz        0.4412    0.3746
        6 C2     *pz        0.3283    0.9466
        7 C2     *011       0.0209   -0.0092

      Molecular orbitals for symmetry species 8: au 

          Orbital            1    
          Energy            0.1115
          Occ. No.          0.0000

        1 C1     2pz        0.5593
        2 C1     *pz        0.9187
        3 C1     *101      -0.0007
        4 C1     *011      -0.0344
        5 C2     *101       0.0464
--


++    Molecular charges:
      ------------------

      Mulliken charges per centre and basis function type
      ---------------------------------------------------

                C1      C2      H3    
      1s       1.9968  1.9970  0.5148
      2s       0.6918  0.7013  0.0000
      2px      0.7589  0.7634  0.0000
      2pz      0.5395  0.5071  0.0000
      2py      0.6475  0.5507  0.0000
      *s       0.5201  0.4739  0.2401
      *px      0.3139  0.1064  0.0000
      *110     0.0153  0.0151  0.0000
      *020     0.0175 -0.0094  0.0000
      *002    -0.0190 -0.0150  0.0000
      *200     0.0325  0.0274  0.0000
      *pz      0.4895  0.4030  0.0000
      *py      0.2467  0.4356  0.0000
      *101     0.0041  0.0078  0.0000
      *011     0.0058  0.0042  0.0000
      Total    6.2608  5.9685  0.7549

      N-E     -0.2608  0.0315  0.2451

      Total electronic charge=   40.000000

      Total            charge=   -0.000000
--


++    Molecular properties:
      ---------------------

      Charge (e):
                      =   -0.0000
      Dipole Moment (Debye):
      Origin of the operator (Ang)=    0.0000    0.0000    0.0000
                   X=  0.0000E+00               Y=  0.0000E+00               Z=  0.0000E+00           Total=  0.0000E+00
      Quadrupole Moment (Debye*Ang):
      Origin of the operator (Ang)=    0.0000    0.0000    0.0000
                  XX= -2.5435E+01              XY=  0.0000E+00              XZ=  0.0000E+00              YY= -3.7708E+01
                  YZ=  0.0000E+00              ZZ= -3.8506E+01
      In traceless form (Debye*Ang)
                  XX=  1.2672E+01              XY=  0.0000E+00              XZ=  0.0000E+00              YY= -5.7373E+00
                  YZ=  0.0000E+00              ZZ= -6.9348E+00
--


      Input file to MOLDEN was generated!

 ###############################################################################
 ###############################################################################
 ###                                                                         ###
 ###                                                                         ###
 ###    WARNING: RunFile label nBas                                          ###
 ###    was used       60 times                                              ###
 ###                                                                         ###
 ###                                                                         ###
 ###############################################################################
 ###############################################################################
--- Stop Module: scf at Wed Jul 17 11:18:03 2024 /rc=_RC_ALL_IS_WELL_ ---
*** files: product_symmetry.scf.molden product_symmetry.ScfOrb xmldump
    saved to directory /home/kenya/molcas_test/exercise_1
--- Module scf spent 1 second ---

>>> EXPORT sym = 1

>>> EXPORT spin = 1

--- Start Module: rasscf at Wed Jul 17 11:18:03 2024 ---

()()()()()()()()()()()()()()()()()()()()()()()()()()()()()()()()()()()()()()()()()()()()()()()()()()

                                              &RASSCF

                                   only a single process is used
                       available to each process: 2.0 GB of memory, 1 thread
                                            pid: 227150
()()()()()()()()()()()()()()()()()()()()()()()()()()()()()()()()()()()()()()()()()()()()()()()()()()


      Header of the ONEINT file:
      --------------------------
      
      Integrals generated by Gateway/Seward, Wed Jul 17 11:18:00 2024


      OrdInt status: non-squared


      Cartesian coordinates in Angstrom:
      -----------------------------------------------------
      No.  Label        X            Y            Z        
      -----------------------------------------------------
       1   C1         1.21678328  -0.72205777   0.00000000
       2   C2         0.00000000  -1.36430413   0.00000000
       3   H3         2.15428172   1.24554454   0.00000000
       4   C1        -1.21678328  -0.72205777   0.00000000
       5   C1         1.21678328   0.72205777   0.00000000
       6   C1        -1.21678328   0.72205777   0.00000000
       7   C2         0.00000000   1.36430413   0.00000000
       8   H3        -2.15428172   1.24554454   0.00000000
       9   H3         2.15428172  -1.24554454   0.00000000
      10   H3        -2.15428172  -1.24554454   0.00000000
      -----------------------------------------------------
      Nuclear repulsion energy =  184.57364921

++    Wave function specifications:
      -----------------------------

      Number of closed shell electrons          28
      Number of electrons in active shells      12
      Max number of holes in RAS1 space          0
      Max nr of electrons in RAS3 space          0
      Number of inactive orbitals               14
      Number of active orbitals                 12
      Number of secondary orbitals              72
      Spin quantum number                      0.0
      State symmetry                             1
--

++    Orbital specifications:
      -----------------------

      Symmetry species                           1   2   3   4   5   6   7   8
                                                ag b3u b2u b1g b1u b2g b3g  au
      Frozen orbitals                            0   0   0   0   0   0   0   0
      Inactive orbitals                          4   3   4   3   0   0   0   0
      Active orbitals                            2   1   2   1   2   1   2   1
      RAS1 orbitals                              0   0   0   0   0   0   0   0
      RAS2 orbitals                              2   1   2   1   2   1   2   1
      RAS3 orbitals                              0   0   0   0   0   0   0   0
      Secondary orbitals                        15  12  15  12   5   4   5   4
      Deleted orbitals                           0   0   0   0   0   0   0   0
      Number of basis functions                 21  16  21  16   7   5   7   5
--

++    CI expansion specifications:
      ----------------------------

      Number of CSFs                         28704
      Number of determinants                 54022
      Number of root(s) required                 1
      Root chosen for geometry opt.              1
      CI root used                               1
         
      highest root included in the CI            1
      max. size of the explicit Hamiltonian    200
--

++    Optimization specifications:
      ----------------------------

      RASSCF algorithm: Conventional
      Maximum number of macro iterations       200
      Maximum number of SX iterations          100
      Threshold for RASSCF energy            1.000E-08
      Threshold for max MO rotation          1.000E-01
      Threshold for max BLB element          1.000E-04
      Level shift parameter                  5.000E-01
      Make Quasi-Newton update
--

      The MO-coefficients are taken from the file:
      INPORB                                                                                                                                                                                                                                                          
      Title: RASSCF average (pseudo-natural) orbitals                                      

      Total molecular charge    0.00

      ************************************************************************************************************************
      *                                                                                                                      *
      *                                            Wave function control section                                             *
      *                                                                                                                      *
      ************************************************************************************************************************


                                         RASSCF iterations: Energy and convergence statistics
                                         ----------------------------------------------------

      Iter CI   SX   CI       RASSCF       Energy    max ROT     max BLB   max BLB  Level Ln srch  Step   QN   Walltime
          iter iter root      energy       change     param      element    value   shift minimum  type update hh:mm:ss
 Nr of preliminary CI iterations:   5
        1   1    5    1  -229.53799336    0.00E+00  -6.19E-04    1   3 7 -1.94E-04*  0.08   0.00    SX    NO    0:00:01
        2   1    5    1  -229.53799364   -2.80E-07* -1.80E-04    1   5 7 -4.12E-05   0.08   0.00    SX    NO    0:00:00
        3   2    4    1  -229.53800425   -1.06E-05* -9.49E-05    1   3 7  5.14E-05   0.08   0.00    SX    NO    0:00:00
        4   6    5    1  -229.53800859   -4.34E-06* -3.90E-04    1   3 7  1.24E-04*  0.08   0.00    SX    NO    0:00:01
        5   3    5    1  -229.53800873   -1.36E-07* -2.18E-04    1   5 7  3.38E-05   0.08   1.37    QN   YES    0:00:00
        6   3    4    1  -229.53800875   -1.92E-08*  5.58E-05    1   5 6 -5.55E-06   0.08   1.05    QN   YES    0:00:00
        7   1    4    1  -229.53800875   -1.20E-09  -3.88E-05    1   2 6 -4.39E-06   0.08   1.42    QN   YES    0:00:00
      Convergence after  7 iterations
        8   1    4    1  -229.53800875   -3.35E-10  -3.88E-05    1   2 6  1.47E-06   0.08   1.42    QN   YES    0:00:00

      ************************************************************************************************************************
                                                      Wave function printout:
                       occupation of active orbitals, and spin coupling of open shells (u,d: Spin up or down)
      ************************************************************************************************************************

      Note: transformation to natural orbitals
      has been made, which may change the order of the CSFs.

      printout of CI-coefficients larger than  0.05 for root  1
      energy=    -229.538009
      conf/sym  112334556778     Coeff  Weight
          5774  22 2 00 0 22 2 00 0  -0.09156 0.00838
          5776  22 2 00 0 20 2 20 0   0.53021 0.28112
          5792  22 2 00 0 2u d u0 d   0.09719 0.00945
          5798  22 2 00 0 u0 d 2u d  -0.05580 0.00311
          5812  22 2 00 0 20 0 20 2  -0.07595 0.00577
          5878  20 2 20 0 22 2 00 0   0.10390 0.01080
          5880  20 2 20 0 20 2 20 0  -0.74573 0.55611
          5885  20 2 20 0 ud 2 ud 0   0.05969 0.00356
          5887  20 2 20 0 uu 2 dd 0  -0.05550 0.00308
          5896  20 2 20 0 2u d u0 d  -0.12160 0.01479
          5902  20 2 20 0 u0 d 2u d   0.07970 0.00635
          5916  20 2 20 0 20 0 20 2   0.10303 0.01062
         10078  2u 2 d0 0 2u 2 d0 0   0.05422 0.00294
         17656  2u 2 u0 0 2d 2 d0 0  -0.14441 0.02085

      Natural orbitals and occupation numbers for root  1
      sym 1:   1.977045   0.695967
      sym 2:   1.976917
      sym 3:   1.308194   0.019979
      sym 4:   0.021041
      sym 5:   1.955955   0.119518
      sym 6:   1.902069
      sym 7:   1.880440   0.041736
      sym 8:   0.101140

      ************************************************************************************************************************
      *                                                                                                                      *
      *                                                    Final results                                                     *
      *                                                                                                                      *
      ************************************************************************************************************************


++    Wave function specifications:
      -----------------------------

      Number of closed shell electrons          28
      Number of electrons in active shells      12
      Max number of holes in RAS1 space          0
      Max nr of electrons in RAS3 space          0
      Number of inactive orbitals               14
      Number of active orbitals                 12
      Number of secondary orbitals              72
      Spin quantum number                      0.0
      State symmetry                             1
--

++    Orbital specifications:
      -----------------------

      Symmetry species                           1   2   3   4   5   6   7   8
                                                ag b3u b2u b1g b1u b2g b3g  au
      Frozen orbitals                            0   0   0   0   0   0   0   0
      Inactive orbitals                          4   3   4   3   0   0   0   0
      Active orbitals                            2   1   2   1   2   1   2   1
      RAS1 orbitals                              0   0   0   0   0   0   0   0
      RAS2 orbitals                              2   1   2   1   2   1   2   1
      RAS3 orbitals                              0   0   0   0   0   0   0   0
      Secondary orbitals                        15  12  15  12   5   4   5   4
      Deleted orbitals                           0   0   0   0   0   0   0   0
      Number of basis functions                 21  16  21  16   7   5   7   5
--

++    CI expansion specifications:
      ----------------------------

      Number of CSFs                         28704
      Number of determinants                 54022
      Number of root(s) required                 1
      CI root used                               1
      highest root included in the CI            1
      Root passed to geometry opt.               1
--

++    Final optimization conditions:
      ------------------------------

      Average CI energy                            -229.53800875
      RASSCF energy for state  1                   -229.53800875
      Super-CI energy                                -0.00000000
      RASSCF energy change                            0.00000000
      Max change in MO coefficients              -8.294E-05
      Max non-diagonal density matrix element    -3.882E-05
      Maximum BLB matrix element                  1.472E-06
      (orbital pair   1,   2 in symmetry   6)
      Norm of electronic gradient            4.517E-06
--


      Final state energy(ies):
      ------------------------

::    RASSCF root number  1 Total energy:   -229.53800875

++    Molecular orbitals:
      -------------------

      Pseudonatural active orbitals and approximate occupation numbers




      Molecular orbitals for symmetry species 1: ag 


      Orbital                 1         2         3         4         5         6
      Energy           -11.2366  -11.2347   -1.0897   -0.7417   -0.7143    0.0035
      Occ. No.           2.0000    2.0000    2.0000    2.0000    1.9770    0.6960

     1 C1     1s         0.6502   -0.7538   -0.1508   -0.0791    0.1177   -0.0054
     2 C1     2s         0.0179   -0.0209    0.2829    0.1526   -0.2428    0.0108
     3 C1     *s        -0.0010    0.0113    0.1702    0.1662   -0.1684   -0.0238
     4 C1     2px        0.0002    0.0003   -0.1462    0.3875   -0.0172   -0.0912
     5 C1     *px       -0.0021   -0.0030   -0.0186    0.1517    0.0046    0.0222
     6 C1     2py        0.0004    0.0009   -0.1170   -0.1001   -0.5207   -0.2790
     7 C1     *py        0.0006   -0.0004   -0.0569   -0.0683   -0.1860   -0.2010
     8 C1     *200      -0.0009    0.0006    0.0127    0.0061    0.0112    0.0193
     9 C1     *110      -0.0002   -0.0003    0.0044   -0.0146    0.0064   -0.0186
    10 C1     *020      -0.0011    0.0009    0.0025    0.0047   -0.0146   -0.0140
    11 C1     *002      -0.0011    0.0010   -0.0081   -0.0034    0.0049   -0.0017
    12 C2     1s         0.7534    0.6512   -0.1636    0.0616   -0.0711    0.0825
    13 C2     2s         0.0204    0.0180    0.3182   -0.1238    0.1554   -0.1862
    14 C2     *s        -0.0071   -0.0134    0.2154   -0.0763    0.1681   -0.3298
    15 C2     2py        0.0007    0.0010    0.1018   -0.1066   -0.0795    0.5703
    16 C2     *py       -0.0016   -0.0031    0.0255   -0.0147   -0.0180    0.4374
    17 C2     *200      -0.0008   -0.0003    0.0110    0.0026    0.0068    0.0152
    18 C2     *020      -0.0011   -0.0007   -0.0025   -0.0052   -0.0091   -0.0114
    19 C2     *002      -0.0011   -0.0008   -0.0073    0.0028   -0.0004    0.0002
    20 H3     1s        -0.0002    0.0001    0.0810    0.2795    0.0549    0.0994
    21 H3     *s         0.0019   -0.0010    0.0275    0.1506    0.0745    0.0983



      Molecular orbitals for symmetry species 2: b3u


      Orbital                 1         2         3         4
      Energy           -11.2356   -0.9050   -0.6116   -0.6813
      Occ. No.           2.0000    2.0000    2.0000    1.9769

     1 C1     1s         0.9955   -0.1806    0.0210    0.1274
     2 C1     2s         0.0279    0.3430   -0.0453   -0.2609
     3 C1     *s        -0.0089    0.2929   -0.0532   -0.1855
     4 C1     2px       -0.0002    0.0043    0.4820    0.0071
     5 C1     *px        0.0010    0.0171    0.2077    0.0166
     6 C1     2py       -0.0003   -0.1960    0.0105   -0.5556
     7 C1     *py        0.0008   -0.1112   -0.0030   -0.2087
     8 C1     *200      -0.0012    0.0119    0.0081    0.0123
     9 C1     *110       0.0000   -0.0024   -0.0182    0.0026
    10 C1     *020      -0.0014    0.0058   -0.0013   -0.0156
    11 C1     *002      -0.0014   -0.0089    0.0002    0.0046
    12 C2     2px       -0.0002    0.2770   -0.3233    0.1149
    13 C2     *px        0.0019    0.0415   -0.0791    0.0407
    14 C2     *110      -0.0001    0.0146   -0.0265   -0.0106
    15 H3     1s        -0.0002    0.1944    0.2373    0.0756
    16 H3     *s         0.0016    0.0816    0.1722    0.0933



      Molecular orbitals for symmetry species 3: b2u


      Orbital                 1         2         3         4         5         6
      Energy           -11.2363  -11.2342   -0.9867   -0.6355   -0.1910   -0.0000
      Occ. No.           2.0000    2.0000    2.0000    2.0000    1.3082    0.0200

     1 C1     1s         0.4677    0.8793   -0.1480    0.0756   -0.0677   -0.1504
     2 C1     2s         0.0129    0.0251    0.2897   -0.1499    0.1698    0.7268
     3 C1     *s         0.0019   -0.0275    0.2057   -0.1504    0.0880    1.0297
     4 C1     2px        0.0001   -0.0004   -0.1420   -0.3889   -0.1089    0.0542
     5 C1     *px       -0.0038    0.0081    0.0098   -0.2204    0.1175   -0.1566
     6 C1     2py        0.0003    0.0001   -0.1617    0.1109    0.0313    1.0929
     7 C1     *py       -0.0003   -0.0045   -0.0386    0.0747    0.0057    0.5757
     8 C1     *200      -0.0006   -0.0005    0.0164   -0.0070    0.0132   -0.0624
     9 C1     *110      -0.0001    0.0003    0.0096    0.0384   -0.0090   -0.0086
    10 C1     *020      -0.0007   -0.0004   -0.0064   -0.0015   -0.0153    0.0098
    11 C1     *002      -0.0007   -0.0010   -0.0064    0.0033    0.0003   -0.0146
    12 C2     1s         0.8787   -0.4686   -0.1719   -0.0852    0.0867    0.0042
    13 C2     2s         0.0244   -0.0134    0.3346    0.1759   -0.1854    0.0518
    14 C2     *s        -0.0118    0.0198    0.2640    0.1138   -0.1975   -0.2108
    15 C2     2py        0.0010   -0.0008    0.1258    0.1046    0.5568   -0.2261
    16 C2     *py       -0.0028    0.0058    0.0565    0.0127    0.4843   -0.2342
    17 C2     *200      -0.0009   -0.0001    0.0119   -0.0027    0.0083   -0.0243
    18 C2     *020      -0.0013    0.0003   -0.0027    0.0029   -0.0002    0.0188
    19 C2     *002      -0.0012    0.0005   -0.0074   -0.0026   -0.0016    0.0035
    20 H3     1s         0.0000    0.0003   -0.0886    0.3150   -0.0311    0.0394
    21 H3     *s        -0.0016   -0.0001   -0.0112    0.1865    0.0363   -0.0158



      Molecular orbitals for symmetry species 4: b1g


      Orbital                 1         2         3         4
      Energy           -11.2346   -0.8306   -0.5163    0.7538
      Occ. No.           2.0000    2.0000    2.0000    0.0210

     1 C1     1s         0.9958   -0.1779   -0.0075    0.1731
     2 C1     2s         0.0280    0.3532    0.0227   -0.7866
     3 C1     *s        -0.0166    0.3296    0.0139   -0.8380
     4 C1     2px       -0.0003   -0.0128   -0.4700    0.0180
     5 C1     *px        0.0020    0.0410   -0.2632    0.0784
     6 C1     2py        0.0002   -0.2230   -0.0205   -1.0549
     7 C1     *py       -0.0022   -0.1002   -0.0100   -0.4726
     8 C1     *200      -0.0009    0.0144   -0.0085    0.0603
     9 C1     *110       0.0002   -0.0014    0.0451    0.0103
    10 C1     *020      -0.0007   -0.0031   -0.0002   -0.0032
    11 C1     *002      -0.0013   -0.0073    0.0007    0.0139
    12 C2     2px       -0.0002    0.2963    0.3595    0.0648
    13 C2     *px        0.0021    0.0414    0.1033    0.0115
    14 C2     *110      -0.0002    0.0178    0.0250   -0.0193
    15 H3     1s         0.0002   -0.1930    0.2818   -0.0493
    16 H3     *s        -0.0015   -0.0572    0.2329   -0.0265



      Molecular orbitals for symmetry species 5: b1u


      Orbital                 1         2
      Energy            -0.4910    0.1828
      Occ. No.           1.9560    0.1195

     1 C1     2pz        0.4381   -0.4341
     2 C1     *pz        0.2755   -0.3645
     3 C1     *101      -0.0198   -0.0235
     4 C1     *011       0.0115   -0.0523
     5 C2     2pz        0.3034    0.6414
     6 C2     *pz        0.1699    0.4970
     7 C2     *011       0.0187   -0.0207



      Molecular orbitals for symmetry species 6: b2g


      Orbital                 1
      Energy            -0.3215
      Occ. No.           1.9021

     1 C1     2pz        0.5694
     2 C1     *pz        0.4461
     3 C1     *101      -0.0027
     4 C1     *011       0.0246
     5 C2     *101       0.0295



      Molecular orbitals for symmetry species 7: b3g


      Orbital                 1         2
      Energy            -0.3244    0.4385
      Occ. No.           1.8804    0.0417

     1 C1     2pz        0.3381   -0.8132
     2 C1     *pz        0.2638   -0.4396
     3 C1     *101      -0.0261   -0.0050
     4 C1     *011      -0.0243   -0.0318
     5 C2     2pz        0.4659    0.5226
     6 C2     *pz        0.3373    0.3898
     7 C2     *011       0.0153   -0.0241



      Molecular orbitals for symmetry species 8: au 


      Orbital                 1
      Energy             0.1650
      Occ. No.           0.1011

     1 C1     2pz        0.8176
     2 C1     *pz        0.4968
     3 C1     *101      -0.0162
     4 C1     *011      -0.0023
     5 C2     *101       0.0395
--

      Von Neumann Entropy (Root   1) =  1.86011


      Mulliken population analysis for root number:  1
      -----------------------------------------------


++    Molecular charges:
      ------------------

      Mulliken charges per centre and basis function type
      ---------------------------------------------------

                C1      C2      H3    
      1s       1.9966  1.9968  0.5246
      2s       0.6746  0.6864  0.0000
      2px      0.7409  0.7602  0.0000
      2pz      0.5577  0.5485  0.0000
      2py      0.7044  0.5832  0.0000
      *s       0.5163  0.5206  0.2636
      *px      0.2949  0.1011  0.0000
      *110     0.0158  0.0149  0.0000
      *020     0.0176 -0.0012  0.0000
      *002    -0.0182 -0.0151  0.0000
      *200     0.0307  0.0261  0.0000
      *pz      0.4507  0.4060  0.0000
      *py      0.2327  0.3375  0.0000
      *101     0.0039  0.0075  0.0000
      *011     0.0053  0.0033  0.0000
      Total    6.2240  5.9758  0.7881

      N-E     -0.2240  0.0242  0.2119

      Total electronic charge=   40.000000

      Total            charge=   -0.000000
--



      Expectation values of various properties for root number:  1
      -----------------------------------------------------------


++    Molecular properties:
      ---------------------

      Charge (e):
                      =   -0.0000
      Dipole Moment (Debye):
      Origin of the operator (Ang)=    0.0000    0.0000    0.0000
                   X=  0.0000E+00               Y=  0.0000E+00               Z=  0.0000E+00           Total=  0.0000E+00
      Quadrupole Moment (Debye*Ang):
      Origin of the operator (Ang)=    0.0000    0.0000    0.0000
                  XX= -2.7962E+01              XY=  0.0000E+00              XZ=  0.0000E+00              YY= -3.5154E+01
                  YZ=  0.0000E+00              ZZ= -3.7570E+01
      In traceless form (Debye*Ang)
                  XX=  8.4002E+00              XY=  0.0000E+00              XZ=  0.0000E+00              YY= -2.3878E+00
                  YZ=  0.0000E+00              ZZ= -6.0125E+00
--


      Input file to MOLDEN was generated!

      Average orbitals are written to the RASORB file
      Natural orbitals for root   1 are written to the RASORB.1 file
      Spin density orbitals for root   1 are written to the SPDORB.1 file

--- Stop Module: rasscf at Wed Jul 17 11:18:10 2024 /rc=_RC_ALL_IS_WELL_ ---
*** files: product_symmetry.rasscf.molden product_symmetry.RasOrb product_symmetry.RasOrb.1 product_symmetry.SpdOrb.1 xmldump
    saved to directory /home/kenya/molcas_test/exercise_1
--- Module rasscf spent 7 seconds ---

>>> END FOREACH

>>> EXPORT spin = 3

--- Start Module: rasscf at Wed Jul 17 11:18:10 2024 ---

()()()()()()()()()()()()()()()()()()()()()()()()()()()()()()()()()()()()()()()()()()()()()()()()()()

                                              &RASSCF

                                   only a single process is used
                       available to each process: 2.0 GB of memory, 1 thread
                                            pid: 227252
()()()()()()()()()()()()()()()()()()()()()()()()()()()()()()()()()()()()()()()()()()()()()()()()()()


      Header of the ONEINT file:
      --------------------------
      
      Integrals generated by Gateway/Seward, Wed Jul 17 11:18:00 2024


      OrdInt status: non-squared


      Cartesian coordinates in Angstrom:
      -----------------------------------------------------
      No.  Label        X            Y            Z        
      -----------------------------------------------------
       1   C1         1.21678328  -0.72205777   0.00000000
       2   C2         0.00000000  -1.36430413   0.00000000
       3   H3         2.15428172   1.24554454   0.00000000
       4   C1        -1.21678328  -0.72205777   0.00000000
       5   C1         1.21678328   0.72205777   0.00000000
       6   C1        -1.21678328   0.72205777   0.00000000
       7   C2         0.00000000   1.36430413   0.00000000
       8   H3        -2.15428172   1.24554454   0.00000000
       9   H3         2.15428172  -1.24554454   0.00000000
      10   H3        -2.15428172  -1.24554454   0.00000000
      -----------------------------------------------------
      Nuclear repulsion energy =  184.57364921

++    Wave function specifications:
      -----------------------------

      Number of closed shell electrons          28
      Number of electrons in active shells      12
      Max number of holes in RAS1 space          0
      Max nr of electrons in RAS3 space          0
      Number of inactive orbitals               14
      Number of active orbitals                 12
      Number of secondary orbitals              72
      Spin quantum number                      1.0
      State symmetry                             1
--

++    Orbital specifications:
      -----------------------

      Symmetry species                           1   2   3   4   5   6   7   8
                                                ag b3u b2u b1g b1u b2g b3g  au
      Frozen orbitals                            0   0   0   0   0   0   0   0
      Inactive orbitals                          4   3   4   3   0   0   0   0
      Active orbitals                            2   1   2   1   2   1   2   1
      RAS1 orbitals                              0   0   0   0   0   0   0   0
      RAS2 orbitals                              2   1   2   1   2   1   2   1
      RAS3 orbitals                              0   0   0   0   0   0   0   0
      Secondary orbitals                        15  12  15  12   5   4   5   4
      Deleted orbitals                           0   0   0   0   0   0   0   0
      Number of basis functions                 21  16  21  16   7   5   7   5
--

++    CI expansion specifications:
      ----------------------------

      Number of CSFs                         47583
      Number of determinants                 78416
      Number of root(s) required                 1
      Root chosen for geometry opt.              1
      CI root used                               1
         
      highest root included in the CI            1
      max. size of the explicit Hamiltonian    200
--

++    Optimization specifications:
      ----------------------------

      RASSCF algorithm: Conventional
      Maximum number of macro iterations       200
      Maximum number of SX iterations          100
      Threshold for RASSCF energy            1.000E-08
      Threshold for max MO rotation          1.000E-01
      Threshold for max BLB element          1.000E-04
      Level shift parameter                  5.000E-01
      Make Quasi-Newton update
--

      The MO-coefficients are taken from the file:
      INPORB                                                                                                                                                                                                                                                          
      Title: RASSCF average (pseudo-natural) orbitals                                      

      Total molecular charge    0.00

      ************************************************************************************************************************
      *                                                                                                                      *
      *                                            Wave function control section                                             *
      *                                                                                                                      *
      ************************************************************************************************************************


                                         RASSCF iterations: Energy and convergence statistics
                                         ----------------------------------------------------

      Iter CI   SX   CI       RASSCF       Energy    max ROT     max BLB   max BLB  Level Ln srch  Step   QN   Walltime
          iter iter root      energy       change     param      element    value   shift minimum  type update hh:mm:ss
 Nr of preliminary CI iterations:   6
        1   1    6    1  -229.35637640    0.00E+00   1.32E-01*   1   2 8 -1.02E-01*  0.13   0.00    SX    NO    0:00:02
        2   5    7    1  -229.37742168   -2.10E-02* -1.84E-02    1   2 8 -9.28E-03*  0.12   0.00    SX    NO    0:00:01
        3   1    7    1  -229.37821894   -7.97E-04*  6.72E-03    1   2 8 -3.43E-03*  0.12   0.00    SX    NO    0:00:00
        4   6    7    1  -229.37835034   -1.31E-04* -4.19E-03    4   8 2  1.41E-03*  0.12   0.00    SX    NO    0:00:01
        5   4    6    1  -229.37837604   -2.57E-05* -4.16E-03    1   2 8 -4.38E-04*  0.12   1.46    QN   YES    0:00:01
        6   5    6    1  -229.37838230   -6.26E-06* -6.70E-04    1   3 7  1.92E-04*  0.12   0.97    QN   YES    0:00:01
        7   3    5    1  -229.37838258   -2.84E-07* -7.64E-04    3   7 4  8.55E-05   0.12   1.36    QN   YES    0:00:00
        8   3    5    1  -229.37838268   -9.52E-08* -1.27E-04    1   3 7 -3.59E-05   0.12   1.00    QN   YES    0:00:00
        9   1    4    1  -229.37838269   -1.27E-08*  9.74E-05    1   4 5 -1.16E-05   0.12   1.26    QN   YES    0:00:00
       10   2    4    1  -229.37838269   -3.13E-09   6.19E-05    3   7 2 -2.99E-06   0.12   1.15    QN   YES    0:00:00
      Convergence after 10 iterations
       11   1    4    1  -229.37838269   -4.49E-10   6.19E-05    1   3 6  1.85E-06   0.12   1.15    QN   YES    0:00:00

      ************************************************************************************************************************
                                                      Wave function printout:
                       occupation of active orbitals, and spin coupling of open shells (u,d: Spin up or down)
      ************************************************************************************************************************

      Note: transformation to natural orbitals
      has been made, which may change the order of the CSFs.

      printout of CI-coefficients larger than  0.05 for root  1
      energy=    -229.378383
      conf/sym  112334556778     Coeff  Weight
         26471  2u 2 u0 0 2d 2 u0 0   0.19084 0.03642
         26473  2u 2 u0 0 2u 2 d0 0  -0.14017 0.01965
         26479  2u 2 u0 0 d0 2 2u 0   0.12380 0.01533
         26485  2u 2 u0 0 u0 2 2d 0  -0.08593 0.00738
         26495  2u 2 u0 0 22 d 00 u   0.09564 0.00915
         26496  2u 2 u0 0 dd u 20 u   0.06084 0.00370
         26497  2u 2 u0 0 20 d 20 u   0.71888 0.51679
         26498  2u 2 u0 0 du d 20 u   0.08020 0.00643
         26499  2u 2 u0 0 ud d 20 u  -0.05597 0.00313
         26511  2u 2 u0 0 20 u dd u  -0.09982 0.00996
         26515  2u 2 u0 0 uu d dd u  -0.06578 0.00433
         26522  2u 2 u0 0 22 u 00 d  -0.06780 0.00460
         26523  2u 2 u0 0 20 u 20 d  -0.50655 0.25659
         26527  2u 2 u0 0 uu d 20 d  -0.10154 0.01031
         26529  2u 2 u0 0 20 d uu d   0.11456 0.01313
         26550  2u 2 u0 0 2d 0 u0 2   0.06115 0.00374

      Natural orbitals and occupation numbers for root  1
      sym 1:   1.981841   0.998540
      sym 2:   1.981522
      sym 3:   1.003854   0.016116
      sym 4:   0.017187
      sym 5:   1.900579   0.168765
      sym 6:   1.082933
      sym 7:   1.836491   0.094314
      sym 8:   0.917859

      ************************************************************************************************************************
      *                                                                                                                      *
      *                                                    Final results                                                     *
      *                                                                                                                      *
      ************************************************************************************************************************


++    Wave function specifications:
      -----------------------------

      Number of closed shell electrons          28
      Number of electrons in active shells      12
      Max number of holes in RAS1 space          0
      Max nr of electrons in RAS3 space          0
      Number of inactive orbitals               14
      Number of active orbitals                 12
      Number of secondary orbitals              72
      Spin quantum number                      1.0
      State symmetry                             1
--

++    Orbital specifications:
      -----------------------

      Symmetry species                           1   2   3   4   5   6   7   8
                                                ag b3u b2u b1g b1u b2g b3g  au
      Frozen orbitals                            0   0   0   0   0   0   0   0
      Inactive orbitals                          4   3   4   3   0   0   0   0
      Active orbitals                            2   1   2   1   2   1   2   1
      RAS1 orbitals                              0   0   0   0   0   0   0   0
      RAS2 orbitals                              2   1   2   1   2   1   2   1
      RAS3 orbitals                              0   0   0   0   0   0   0   0
      Secondary orbitals                        15  12  15  12   5   4   5   4
      Deleted orbitals                           0   0   0   0   0   0   0   0
      Number of basis functions                 21  16  21  16   7   5   7   5
--

++    CI expansion specifications:
      ----------------------------

      Number of CSFs                         47583
      Number of determinants                 78416
      Number of root(s) required                 1
      CI root used                               1
      highest root included in the CI            1
      Root passed to geometry opt.               1
--

++    Final optimization conditions:
      ------------------------------

      Average CI energy                            -229.37838269
      RASSCF energy for state  1                   -229.37838269
      Super-CI energy                                -0.00000000
      RASSCF energy change                            0.00000000
      Max change in MO coefficients              -1.808E-04
      Max non-diagonal density matrix element     6.186E-05
      Maximum BLB matrix element                  1.852E-06
      (orbital pair   1,   3 in symmetry   6)
      Norm of electronic gradient            8.888E-06
--


      Final state energy(ies):
      ------------------------

::    RASSCF root number  1 Total energy:   -229.37838269

++    Molecular orbitals:
      -------------------

      Pseudonatural active orbitals and approximate occupation numbers




      Molecular orbitals for symmetry species 1: ag 


      Orbital                 1         2         3         4         5         6
      Energy           -11.2357  -11.2270   -1.0688   -0.7342   -0.7419    0.0026
      Occ. No.           2.0000    2.0000    2.0000    2.0000    1.9818    0.9985

     1 C1     1s         0.1064   -0.9903   -0.1395   -0.0809    0.1247   -0.0059
     2 C1     2s         0.0026   -0.0267    0.2600    0.1569   -0.2645    0.0106
     3 C1     *s         0.0053    0.0108    0.1430    0.1614   -0.1871   -0.0419
     4 C1     2px        0.0003    0.0004   -0.1638    0.3778   -0.0248   -0.0939
     5 C1     *px       -0.0034   -0.0015   -0.0241    0.1576    0.0048    0.0009
     6 C1     2py        0.0001    0.0025   -0.1479   -0.1218   -0.5210   -0.2524
     7 C1     *py       -0.0000    0.0003   -0.0671   -0.0790   -0.1856   -0.1812
     8 C1     *200      -0.0004    0.0010    0.0142    0.0070    0.0110    0.0186
     9 C1     *110      -0.0003   -0.0002    0.0042   -0.0129    0.0054   -0.0240
    10 C1     *020      -0.0004    0.0015    0.0007    0.0041   -0.0185   -0.0154
    11 C1     *002      -0.0003    0.0015   -0.0076   -0.0032    0.0069   -0.0010
    12 C2     1s         0.9900    0.1077   -0.1687    0.0530   -0.0602    0.0882
    13 C2     2s         0.0272    0.0028    0.3273   -0.1060    0.1321   -0.1896
    14 C2     *s        -0.0132   -0.0079    0.2291   -0.0564    0.1467   -0.3606
    15 C2     2py        0.0011    0.0006    0.1115   -0.1010   -0.0591    0.5475
    16 C2     *py       -0.0029   -0.0019    0.0381   -0.0070    0.0030    0.4508
    17 C2     *200      -0.0008    0.0002    0.0110    0.0033    0.0063    0.0128
    18 C2     *020      -0.0014    0.0001   -0.0024   -0.0058   -0.0085   -0.0071
    19 C2     *002      -0.0014   -0.0000   -0.0076    0.0025   -0.0001   -0.0008
    20 H3     1s         0.0000    0.0000    0.0758    0.2837    0.0463    0.1028
    21 H3     *s         0.0011   -0.0021    0.0331    0.1542    0.0736    0.1322



      Molecular orbitals for symmetry species 2: b3u


      Orbital                 1         2         3         4
      Energy           -11.2271   -0.8757   -0.6101   -0.7124
      Occ. No.           2.0000    2.0000    2.0000    1.9815

     1 C1     1s         0.9961   -0.1720    0.0196    0.1334
     2 C1     2s         0.0270    0.3265   -0.0422   -0.2843
     3 C1     *s        -0.0096    0.2780   -0.0537   -0.1906
     4 C1     2px       -0.0003    0.0004    0.4813    0.0068
     5 C1     *px        0.0013    0.0176    0.2135    0.0135
     6 C1     2py       -0.0025   -0.2286    0.0107   -0.5439
     7 C1     *py       -0.0004   -0.1247   -0.0022   -0.2017
     8 C1     *200      -0.0012    0.0134    0.0075    0.0114
     9 C1     *110       0.0001   -0.0022   -0.0163    0.0028
    10 C1     *020      -0.0016    0.0044   -0.0010   -0.0192
    11 C1     *002      -0.0015   -0.0083    0.0002    0.0065
    12 C2     2px        0.0002    0.2864   -0.3214    0.0957
    13 C2     *px        0.0019    0.0440   -0.0756    0.0307
    14 C2     *110      -0.0001    0.0146   -0.0266   -0.0109
    15 H3     1s         0.0000    0.1976    0.2366    0.0639
    16 H3     *s         0.0019    0.0890    0.1703    0.0883



      Molecular orbitals for symmetry species 3: b2u


      Orbital                 1         2         3         4         5         6
      Energy           -11.2357  -11.2264   -0.9853   -0.6322   -0.1588   -0.0003
      Occ. No.           2.0000    2.0000    2.0000    2.0000    1.0039    0.0161

     1 C1     1s         0.0956    0.9913   -0.1475    0.0775   -0.0631   -0.1600
     2 C1     2s         0.0023    0.0284    0.2845   -0.1517    0.1526    0.8043
     3 C1     *s         0.0123   -0.0246    0.2153   -0.1638    0.0320    0.9645
     4 C1     2px        0.0002   -0.0004   -0.1429   -0.3850   -0.1139    0.0626
     5 C1     *px       -0.0067    0.0062    0.0042   -0.2263    0.0899   -0.2010
     6 C1     2py        0.0002    0.0003   -0.1603    0.1101    0.0148    1.1194
     7 C1     *py        0.0014   -0.0044   -0.0342    0.0691   -0.0516    0.4547
     8 C1     *200      -0.0004   -0.0008    0.0165   -0.0070    0.0135   -0.0841
     9 C1     *110      -0.0002    0.0002    0.0096    0.0372   -0.0081    0.0010
    10 C1     *020      -0.0005   -0.0007   -0.0067   -0.0010   -0.0134    0.0335
    11 C1     *002      -0.0003   -0.0013   -0.0057    0.0027   -0.0014   -0.0316
    12 C2     1s         0.9911   -0.0965   -0.1727   -0.0858    0.0860    0.0126
    13 C2     2s         0.0278   -0.0030    0.3356    0.1766   -0.1912    0.0222
    14 C2     *s        -0.0185    0.0138    0.2613    0.1148   -0.2205   -0.2993
    15 C2     2py        0.0011   -0.0002    0.1247    0.0973    0.5769   -0.1853
    16 C2     *py       -0.0050    0.0044    0.0532    0.0067    0.4749   -0.2544
    17 C2     *200      -0.0008   -0.0004    0.0117   -0.0028    0.0103   -0.0136
    18 C2     *020      -0.0014   -0.0002   -0.0027    0.0031   -0.0038    0.0076
    19 C2     *002      -0.0013   -0.0000   -0.0074   -0.0025   -0.0006    0.0067
    20 H3     1s        -0.0001    0.0003   -0.0869    0.3141   -0.0268    0.0521
    21 H3     *s        -0.0014   -0.0006   -0.0132    0.1860    0.0303    0.0122



      Molecular orbitals for symmetry species 4: b1g


      Orbital                 1         2         3         4
      Energy           -11.2265   -0.8290   -0.5133    0.7897
      Occ. No.           2.0000    2.0000    2.0000    0.0172

     1 C1     1s         0.9958   -0.1786   -0.0069    0.1764
     2 C1     2s         0.0283    0.3484    0.0214   -0.8356
     3 C1     *s        -0.0164    0.3516    0.0141   -0.7686
     4 C1     2px       -0.0004   -0.0153   -0.4690   -0.0063
     5 C1     *px        0.0021    0.0353   -0.2724    0.1057
     6 C1     2py        0.0003   -0.2207   -0.0194   -1.0796
     7 C1     *py       -0.0024   -0.0908   -0.0134   -0.3797
     8 C1     *200      -0.0010    0.0144   -0.0081    0.0800
     9 C1     *110       0.0002   -0.0013    0.0436    0.0027
    10 C1     *020      -0.0008   -0.0038   -0.0004   -0.0263
    11 C1     *002      -0.0014   -0.0063    0.0006    0.0296
    12 C2     2px       -0.0002    0.2968    0.3585    0.0680
    13 C2     *px        0.0020    0.0404    0.0985    0.0350
    14 C2     *110      -0.0002    0.0182    0.0252   -0.0178
    15 H3     1s         0.0001   -0.1908    0.2811   -0.0569
    16 H3     *s        -0.0014   -0.0594    0.2319   -0.0423



      Molecular orbitals for symmetry species 5: b1u


      Orbital                 1         2
      Energy            -0.4674    0.1866
      Occ. No.           1.9006    0.1688

     1 C1     2pz        0.4163   -0.4930
     2 C1     *pz        0.2527   -0.3632
     3 C1     *101      -0.0218   -0.0241
     4 C1     *011       0.0071   -0.0311
     5 C2     2pz        0.3310    0.5979
     6 C2     *pz        0.2027    0.5175
     7 C2     *011       0.0185   -0.0058



      Molecular orbitals for symmetry species 6: b2g


      Orbital                 1
      Energy            -0.2200
      Occ. No.           1.0829

     1 C1     2pz        0.5961
     2 C1     *pz        0.4215
     3 C1     *101      -0.0031
     4 C1     *011       0.0186
     5 C2     *101       0.0282



      Molecular orbitals for symmetry species 7: b3g


      Orbital                 1         2
      Energy            -0.3305    0.3812
      Occ. No.           1.8365    0.0943

     1 C1     2pz        0.3648   -0.7176
     2 C1     *pz        0.2948   -0.6330
     3 C1     *101      -0.0244   -0.0118
     4 C1     *011      -0.0235    0.0036
     5 C2     2pz        0.4502    0.5379
     6 C2     *pz        0.3102    0.5034
     7 C2     *011       0.0161   -0.0190



      Molecular orbitals for symmetry species 8: au 


      Orbital                 1
      Energy             0.0269
      Occ. No.           0.9179

     1 C1     2pz        0.6654
     2 C1     *pz        0.7587
     3 C1     *101      -0.0044
     4 C1     *011      -0.0278
     5 C2     *101       0.0396
--

      Von Neumann Entropy (Root   1) =  2.82737


      Mulliken population analysis for root number:  1
      -----------------------------------------------


++    Molecular charges:
      ------------------

      Mulliken charges per centre and basis function type
      ---------------------------------------------------

                C1      C2      H3    
      1s       1.9964  1.9967  0.5249
      2s       0.6682  0.6827  0.0000
      2px      0.7385  0.7596  0.0000
      2pz      0.5701  0.5581  0.0000
      2py      0.7150  0.5746  0.0000
      *s       0.5176  0.5330  0.2680
      *px      0.3031  0.0991  0.0000
      *110     0.0157  0.0150  0.0000
      *020     0.0206  0.0001  0.0000
      *002    -0.0183 -0.0154  0.0000
      *200     0.0316  0.0249  0.0000
      *pz      0.4301  0.4110  0.0000
      *py      0.2207  0.3252  0.0000
      *101     0.0040  0.0095  0.0000
      *011     0.0051  0.0032  0.0000
      Total    6.2184  5.9775  0.7929

      N-E     -0.2184  0.0225  0.2071

      Total electronic charge=   40.000000

      Total            charge=   -0.000000
--



      Expectation values of various properties for root number:  1
      -----------------------------------------------------------


++    Molecular properties:
      ---------------------

      Charge (e):
                      =   -0.0000
      Dipole Moment (Debye):
      Origin of the operator (Ang)=    0.0000    0.0000    0.0000
                   X=  0.0000E+00               Y=  0.0000E+00               Z=  0.0000E+00           Total=  0.0000E+00
      Quadrupole Moment (Debye*Ang):
      Origin of the operator (Ang)=    0.0000    0.0000    0.0000
[...]
      Title: RASSCF average (pseudo-natural) orbitals                                      

      Total molecular charge    0.00

      ************************************************************************************************************************
      *                                                                                                                      *
      *                                            Wave function control section                                             *
      *                                                                                                                      *
      ************************************************************************************************************************


                                         RASSCF iterations: Energy and convergence statistics
                                         ----------------------------------------------------

      Iter CI   SX   CI       RASSCF       Energy    max ROT     max BLB   max BLB  Level Ln srch  Step   QN   Walltime
          iter iter root      energy       change     param      element    value   shift minimum  type update hh:mm:ss
 Nr of preliminary CI iterations:   5
        1   1    7    1  -229.35967192    0.00E+00  -1.47E-02    3   5 3  1.08E-02*  0.11   0.00    SX    NO    0:00:02
        2   1    6    1  -229.36006544   -3.94E-04* -4.79E-03    1   5 7 -2.15E-03*  0.11   0.00    SX    NO    0:00:00
        3   3    6    1  -229.36013578   -7.03E-05* -2.71E-03    3   5 3  1.08E-03*  0.11   0.00    SX    NO    0:00:01
        4   5    6    1  -229.36015160   -1.58E-05* -1.31E-03    3   5 3  4.16E-04*  0.11   0.00    SX    NO    0:00:01
        5   4    6    1  -229.36015448   -2.88E-06* -1.10E-03    3   5 3  1.98E-04*  0.11   1.84    LS   YES    0:00:01
        6   4    5    1  -229.36015524   -7.58E-07*  2.94E-04    5  18 3 -1.02E-04*  0.11   1.00    QN   YES    0:00:01
        7   3    5    1  -229.36015533   -8.74E-08*  2.94E-04    5  11 3 -2.99E-05   0.11   1.18    QN   YES    0:00:01
        8   2    5    1  -229.36015535   -2.35E-08*  2.00E-04    5  18 3  1.31E-05   0.11   1.39    QN   YES    0:00:01
        9   1    4    1  -229.36015536   -4.91E-09  -6.04E-05    5  11 3  8.96E-06   0.11   1.19    QN   YES    0:00:00
      Convergence after  9 iterations
       10   1    4    1  -229.36015536   -7.13E-10  -6.04E-05    6   7 1  2.96E-06   0.11   1.19    QN   YES    0:00:01

      ************************************************************************************************************************
                                                      Wave function printout:
                       occupation of active orbitals, and spin coupling of open shells (u,d: Spin up or down)
      ************************************************************************************************************************

      Note: transformation to natural orbitals
      has been made, which may change the order of the CSFs.

      printout of CI-coefficients larger than  0.05 for root  1
      energy=    -229.360155
      conf/sym  112334556778     Coeff  Weight
          5807  22 2 u0 0 22 u 00 0  -0.06484 0.00420
          5808  22 2 u0 0 20 u 20 0  -0.86435 0.74710
          5812  22 2 u0 0 uu d 20 0  -0.09948 0.00990
          5813  22 2 u0 0 20 d uu 0   0.08832 0.00780
          5836  22 2 u0 0 d0 2 u0 u   0.07800 0.00608
          5840  22 2 u0 0 u0 2 d0 u   0.14003 0.01961
          5858  22 2 u0 0 2u 0 u0 d  -0.06158 0.00379
          5860  22 2 u0 0 u0 2 u0 d   0.07393 0.00547
          5866  22 2 u0 0 u0 0 2u d  -0.05047 0.00255
          5870  22 2 u0 0 20 u 00 2   0.07008 0.00491
          5875  22 2 u0 0 00 u 20 2  -0.06498 0.00422
          7633  u2 d uu d 20 u 20 0   0.05200 0.00270
         13523  2u 2 20 0 2d u u0 0  -0.05540 0.00307
         13525  2u 2 20 0 2u d u0 0  -0.13621 0.01855
         13527  2u 2 20 0 2u u d0 0   0.23202 0.05383
         13548  2u 2 20 0 20 2 00 u  -0.11561 0.01337
         13552  2u 2 20 0 20 0 20 u   0.12999 0.01690
         27616  20 2 u0 0 22 u 20 0  -0.06684 0.00447
         35273  2u 2 00 0 20 2 20 u   0.05011 0.00251

      Natural orbitals and occupation numbers for root  1
      sym 1:   1.980823   1.844751
      sym 2:   1.980127
      sym 3:   1.122991   0.020962
      sym 4:   0.020572
      sym 5:   1.905896   0.140096
      sym 6:   1.025984
      sym 7:   1.789233   0.043536
      sym 8:   0.125028

      ************************************************************************************************************************
      *                                                                                                                      *
      *                                                    Final results                                                     *
      *                                                                                                                      *
      ************************************************************************************************************************


++    Wave function specifications:
      -----------------------------

      Number of closed shell electrons          28
      Number of electrons in active shells      12
      Max number of holes in RAS1 space          0
      Max nr of electrons in RAS3 space          0
      Number of inactive orbitals               14
      Number of active orbitals                 12
      Number of secondary orbitals              72
      Spin quantum number                      1.0
      State symmetry                             8
--

++    Orbital specifications:
      -----------------------

      Symmetry species                           1   2   3   4   5   6   7   8
                                                ag b3u b2u b1g b1u b2g b3g  au
      Frozen orbitals                            0   0   0   0   0   0   0   0
      Inactive orbitals                          4   3   4   3   0   0   0   0
      Active orbitals                            2   1   2   1   2   1   2   1
      RAS1 orbitals                              0   0   0   0   0   0   0   0
      RAS2 orbitals                              2   1   2   1   2   1   2   1
      RAS3 orbitals                              0   0   0   0   0   0   0   0
      Secondary orbitals                        15  12  15  12   5   4   5   4
      Deleted orbitals                           0   0   0   0   0   0   0   0
      Number of basis functions                 21  16  21  16   7   5   7   5
--

++    CI expansion specifications:
      ----------------------------

      Number of CSFs                         47808
      Number of determinants                 78400
      Number of root(s) required                 1
      CI root used                               1
      highest root included in the CI            1
      Root passed to geometry opt.               1
--

++    Final optimization conditions:
      ------------------------------

      Average CI energy                            -229.36015536
      RASSCF energy for state  1                   -229.36015536
      Super-CI energy                                -0.00000000
      RASSCF energy change                            0.00000000
      Max change in MO coefficients               7.549E-05
      Max non-diagonal density matrix element    -6.045E-05
      Maximum BLB matrix element                  2.959E-06
      (orbital pair   6,   7 in symmetry   1)
      Norm of electronic gradient            9.055E-06
--


      Final state energy(ies):
      ------------------------

::    RASSCF root number  1 Total energy:   -229.36015536

++    Molecular orbitals:
      -------------------

      Pseudonatural active orbitals and approximate occupation numbers




      Molecular orbitals for symmetry species 1: ag 


      Orbital                 1         2         3         4         5         6
      Energy           -11.2635  -11.2046   -1.0795   -0.7565   -0.7540    0.0078
      Occ. No.           2.0000    2.0000    2.0000    2.0000    1.9808    1.8448

     1 C1     1s        -0.9954   -0.0157   -0.1433   -0.0811    0.1254    0.0007
     2 C1     2s        -0.0274   -0.0007    0.2715    0.1623   -0.2581    0.0070
     3 C1     *s         0.0093    0.0066    0.1450    0.1491   -0.1969   -0.1387
     4 C1     2px        0.0001    0.0004   -0.1687    0.3842   -0.0309   -0.1108
     5 C1     *px       -0.0009   -0.0037   -0.0332    0.1627    0.0002   -0.0613
     6 C1     2py        0.0005    0.0004   -0.1568   -0.1220   -0.5415   -0.2295
     7 C1     *py       -0.0006    0.0002   -0.0624   -0.0756   -0.1840   -0.1090
     8 C1     *200       0.0010   -0.0004    0.0151    0.0070    0.0132    0.0208
     9 C1     *110      -0.0001   -0.0005    0.0027   -0.0152    0.0012   -0.0340
    10 C1     *020       0.0014   -0.0003   -0.0003    0.0040   -0.0181   -0.0169
    11 C1     *002       0.0015   -0.0001   -0.0079   -0.0032    0.0062   -0.0011
    12 C2     1s        -0.0147    0.9957   -0.1626    0.0568   -0.0571    0.0946
    13 C2     2s        -0.0001    0.0273    0.3092   -0.1087    0.1220   -0.1769
    14 C2     *s        -0.0056   -0.0142    0.2046   -0.0593    0.1355   -0.4100
    15 C2     2py        0.0003    0.0022    0.1225   -0.0898   -0.0417    0.4893
    16 C2     *py       -0.0013   -0.0037    0.0452    0.0111    0.0231    0.4612
    17 C2     *200       0.0003   -0.0006    0.0101    0.0035    0.0060    0.0034
    18 C2     *020       0.0002   -0.0012   -0.0008   -0.0060   -0.0083    0.0114
    19 C2     *002       0.0001   -0.0014   -0.0079    0.0027   -0.0004   -0.0072
    20 H3     1s         0.0002    0.0001    0.0830    0.2850    0.0582    0.1162
    21 H3     *s        -0.0020    0.0009    0.0465    0.1513    0.0931    0.2440



      Molecular orbitals for symmetry species 2: b3u


      Orbital                 1         2         3         4
      Energy           -11.2635   -0.9037   -0.6247   -0.7240
      Occ. No.           2.0000    2.0000    2.0000    1.9801

     1 C1     1s         0.9956   -0.1790    0.0260    0.1287
     2 C1     2s         0.0278    0.3470   -0.0556   -0.2683
     3 C1     *s        -0.0090    0.3054   -0.0724   -0.1590
     4 C1     2px       -0.0002    0.0045    0.4935   -0.0083
     5 C1     *px        0.0011    0.0119    0.2219   -0.0002
     6 C1     2py       -0.0004   -0.2161    0.0086   -0.5624
     7 C1     *py        0.0006   -0.1189    0.0003   -0.2066
     8 C1     *200      -0.0012    0.0129    0.0079    0.0130
     9 C1     *110       0.0001   -0.0036   -0.0169   -0.0002
    10 C1     *020      -0.0014    0.0046   -0.0011   -0.0183
    11 C1     *002      -0.0015   -0.0088    0.0003    0.0057
    12 C2     2px       -0.0002    0.2658   -0.3095    0.1053
    13 C2     *px        0.0019    0.0205   -0.0656    0.0137
    14 C2     *110      -0.0000    0.0174   -0.0296   -0.0078
    15 H3     1s        -0.0002    0.2000    0.2325    0.0702
    16 H3     *s         0.0016    0.0855    0.1598    0.0921



      Molecular orbitals for symmetry species 3: b2u


      Orbital                 1         2         3         4         5         6
      Energy           -11.2626  -11.2046   -0.9919   -0.6508   -0.1976   -0.0000
      Occ. No.           2.0000    2.0000    2.0000    2.0000    1.1230    0.0210

     1 C1     1s         0.9958   -0.0159   -0.1491    0.0761   -0.0701   -0.1507
     2 C1     2s         0.0281   -0.0007    0.2914   -0.1539    0.1726    0.7350
     3 C1     *s        -0.0233    0.0133    0.2457   -0.1487    0.1721    0.9895
     4 C1     2px       -0.0003    0.0004   -0.1405   -0.3944   -0.1293    0.0906
     5 C1     *px        0.0053   -0.0056   -0.0101   -0.2503    0.0657   -0.1338
     6 C1     2py        0.0003    0.0002   -0.1674    0.1104    0.0338    1.1071
     7 C1     *py       -0.0042    0.0016   -0.0197    0.0612    0.0717    0.5364
     8 C1     *200      -0.0007   -0.0005    0.0166   -0.0068    0.0152   -0.0655
     9 C1     *110       0.0002   -0.0003    0.0094    0.0391   -0.0098    0.0077
    10 C1     *020      -0.0007   -0.0005   -0.0070   -0.0007   -0.0165    0.0215
    11 C1     *002      -0.0013   -0.0001   -0.0063    0.0029    0.0009   -0.0252
    12 C2     1s         0.0150    0.9957   -0.1715   -0.0881    0.0819    0.0022
    13 C2     2s         0.0001    0.0279    0.3274    0.1764   -0.1633    0.0488
    14 C2     *s         0.0117   -0.0178    0.2457    0.0913   -0.2468   -0.1777
    15 C2     2py       -0.0001    0.0020    0.1093    0.0906    0.5526   -0.2184
    16 C2     *py        0.0038   -0.0055    0.0313   -0.0102    0.4554   -0.2203
    17 C2     *200      -0.0005   -0.0006    0.0108   -0.0030    0.0040   -0.0159
    18 C2     *020      -0.0003   -0.0012   -0.0019    0.0033    0.0101    0.0135
    19 C2     *002      -0.0001   -0.0013   -0.0072   -0.0026   -0.0052    0.0044
    20 H3     1s         0.0003   -0.0000   -0.0907    0.3128   -0.0296    0.0518
    21 H3     *s        -0.0008   -0.0007   -0.0194    0.1705    0.0043    0.0195



      Molecular orbitals for symmetry species 4: b1g


      Orbital                 1         2         3         4
      Energy           -11.2626   -0.8391   -0.5259    0.7535
      Occ. No.           2.0000    2.0000    2.0000    0.0206

     1 C1     1s         0.9958   -0.1806   -0.0135    0.1720
     2 C1     2s         0.0280    0.3613    0.0362   -0.8041
     3 C1     *s        -0.0166    0.3737    0.0393   -0.7618
     4 C1     2px       -0.0003   -0.0063   -0.4830   -0.0206
     5 C1     *px        0.0021    0.0356   -0.2926    0.0828
     6 C1     2py        0.0002   -0.2273   -0.0265   -1.0844
     7 C1     *py       -0.0023   -0.0860   -0.0273   -0.4122
     8 C1     *200      -0.0009    0.0146   -0.0082    0.0658
     9 C1     *110       0.0002   -0.0031    0.0448   -0.0062
    10 C1     *020      -0.0007   -0.0044   -0.0008   -0.0185
    11 C1     *002      -0.0014   -0.0070    0.0007    0.0282
    12 C2     2px       -0.0002    0.2771    0.3508    0.0564
    13 C2     *px        0.0020    0.0228    0.0804    0.0023
    14 C2     *110      -0.0001    0.0204    0.0287   -0.0200
    15 H3     1s         0.0001   -0.1987    0.2753   -0.0564
    16 H3     *s        -0.0015   -0.0607    0.2176   -0.0413



      Molecular orbitals for symmetry species 5: b1u


      Orbital                 1         2
      Energy            -0.4680    0.1960
      Occ. No.           1.9059    0.1401

     1 C1     2pz        0.4432   -0.3655
     2 C1     *pz        0.2972   -0.4095
     3 C1     *101      -0.0214   -0.0254
     4 C1     *011       0.0127   -0.0592
     5 C2     2pz        0.2746    0.6414
     6 C2     *pz        0.1527    0.5389
     7 C2     *011       0.0224   -0.0352



      Molecular orbitals for symmetry species 6: b2g


      Orbital                 1
      Energy            -0.2248
      Occ. No.           1.0260

     1 C1     2pz        0.5816
     2 C1     *pz        0.4344
     3 C1     *101      -0.0044
     4 C1     *011       0.0277
     5 C2     *101       0.0274



      Molecular orbitals for symmetry species 7: b3g


      Orbital                 1         2
      Energy            -0.3031    0.4225
      Occ. No.           1.7892    0.0435

     1 C1     2pz        0.3702   -0.7100
     2 C1     *pz        0.3136   -0.5761
     3 C1     *101      -0.0273   -0.0002
     4 C1     *011      -0.0241   -0.0156
     5 C2     2pz        0.4325    0.5857
     6 C2     *pz        0.3075    0.4324
     7 C2     *011       0.0203   -0.0596



      Molecular orbitals for symmetry species 8: au 


      Orbital                 1
      Energy             0.1330
      Occ. No.           0.1250

     1 C1     2pz        0.7502
     2 C1     *pz        0.6051
     3 C1     *101      -0.0265
     4 C1     *011      -0.0187
     5 C2     *101       0.0561
--

      Von Neumann Entropy (Root   1) =  2.08283


      Mulliken population analysis for root number:  1
      -----------------------------------------------


++    Molecular charges:
      ------------------

      Mulliken charges per centre and basis function type
      ---------------------------------------------------

                C1      C2      H3    
      1s       1.9966  1.9968  0.5324
      2s       0.6873  0.6790  0.0000
      2px      0.7680  0.7184  0.0000
      2pz      0.4527  0.4759  0.0000
      2py      0.7479  0.7113  0.0000
      *s       0.5376  0.5813  0.2592
      *px      0.3243  0.0655  0.0000
      *110     0.0188  0.0173  0.0000
      *020     0.0199 -0.0067  0.0000
      *002    -0.0187 -0.0111  0.0000
      *200     0.0334  0.0238  0.0000
      *pz      0.3757  0.3557  0.0000
      *py      0.2114  0.4733  0.0000
      *101     0.0038  0.0046  0.0000
      *011     0.0048  0.0046  0.0000
      Total    6.1636  6.0897  0.7916

      N-E     -0.1636 -0.0897  0.2084

      Total electronic charge=   40.000000

      Total            charge=   -0.000000
--



      Expectation values of various properties for root number:  1
      -----------------------------------------------------------


++    Molecular properties:
      ---------------------

      Charge (e):
                      =   -0.0000
      Dipole Moment (Debye):
      Origin of the operator (Ang)=    0.0000    0.0000    0.0000
                   X=  0.0000E+00               Y=  0.0000E+00               Z=  0.0000E+00           Total=  0.0000E+00
      Quadrupole Moment (Debye*Ang):
      Origin of the operator (Ang)=    0.0000    0.0000    0.0000
                  XX= -2.6436E+01              XY=  0.0000E+00              XZ=  0.0000E+00              YY= -4.2773E+01
                  YZ=  0.0000E+00              ZZ= -3.5817E+01
      In traceless form (Debye*Ang)
                  XX=  1.2859E+01              XY=  0.0000E+00              XZ=  0.0000E+00              YY= -1.1646E+01
                  YZ=  0.0000E+00              ZZ= -1.2132E+00
--


      Mulliken spin population analysis for root number:  1
      ---------------------------------------------------


++    Molecular charges:
      ------------------

      Mulliken spin population per centre and basis function type
      ---------------------------------------------------

                C1      C2      H3    
      1s       0.0001  0.0002  0.0010
      2s       0.0085  0.0245  0.0000
      2px      0.0050  0.0000  0.0000
      2pz      0.1547 -0.0196  0.0000
      2py      0.0027  0.2208  0.0000
      *s      -0.0006  0.0459  0.0004
      *px      0.0014 -0.0000  0.0000
      *110     0.0004  0.0000  0.0000
      *020     0.0002 -0.0020  0.0000
      *002     0.0000  0.0012  0.0000
      *200     0.0017 -0.0006  0.0000
      *pz      0.1172 -0.0195  0.0000
      *py      0.0035  0.1501  0.0000
      *101    -0.0001  0.0035  0.0000
      *011     0.0014  0.0006  0.0000
      Total    0.2961  0.4050  0.0014

      Total electronic spin=    2.000000
--



      Input file to MOLDEN was generated!


      Input file to MOLDEN was generated!

      Average orbitals are written to the RASORB file
      Natural orbitals for root   1 are written to the RASORB.1 file
      Spin density orbitals for root   1 are written to the SPDORB.1 file

--- Stop Module: rasscf at Wed Jul 17 11:21:53 2024 /rc=_RC_ALL_IS_WELL_ ---
*** files: product_symmetry.rasscf.molden.1 product_symmetry.rasscf.molden product_symmetry.RasOrb product_symmetry.RasOrb.1 product_symmetry.SpdOrb.1 xmldump
    saved to directory /home/kenya/molcas_test/exercise_1
--- Module rasscf spent 15 seconds ---

>>> END FOREACH

>>> END FOREACH

.##################.
.# Happy landing! #.
.##################.

    Timing: Wall=233.28 User=223.05 System=9.98
