[Molden Format]
[N_Atoms]
                   10
[Atoms] (AU)
C1          1      6           2.24059237     -1.40668514      0.00000000
C1          2      6          -2.24059237     -1.40668514      0.00000000
C1          3      6           2.24059237      1.40668514      0.00000000
C1          4      6          -2.24059237      1.40668514      0.00000000
C2          5      6           0.00000000     -2.53575672      0.00000000
C2          6      6           0.00000000      2.53575672      0.00000000
H3          7      1           4.08990946      2.23412236      0.00000000
H3          8      1          -4.08990946      2.23412236      0.00000000
H3          9      1           4.08990946     -2.23412236      0.00000000
H3         10      1          -4.08990946     -2.23412236      0.00000000
[Charge] (Mulliken)
 -0.94767360634823206     
 -0.94767360634823206     
 -0.94767360634823206     
 -0.94767360634823206     
   7.5808942615694264E-002
   7.5808942615694264E-002
  0.87186466373234239     
  0.87186466373234239     
  0.87186466373234239     
  0.87186466373234239     
[GTO] (AU)
   1
   s   6
  3.047524880E+03  1.834737132E-03
  4.573695180E+02  1.403732281E-02
  1.039486850E+02  6.884262227E-02
  2.921015530E+01  2.321844432E-01
  9.286662960E+00  4.679413484E-01
  3.163926960E+00  3.623119853E-01
   s   3
  7.868272350E+00 -1.193324198E-01
  1.881288540E+00 -1.608541517E-01
  5.442492580E-01  1.143456438E+00
   s   1
  1.687144782E-01  1.000000000E+00
   p   3
  7.868272350E+00  6.899906659E-02
  1.881288540E+00  3.164239610E-01
  5.442492580E-01  7.443082909E-01
   p   1
  1.687144782E-01  1.000000000E+00
   d   1
  8.000000000E-01  1.000000000E+00
 
   2
   s   6
  3.047524880E+03  1.834737132E-03
  4.573695180E+02  1.403732281E-02
  1.039486850E+02  6.884262227E-02
  2.921015530E+01  2.321844432E-01
  9.286662960E+00  4.679413484E-01
  3.163926960E+00  3.623119853E-01
   s   3
  7.868272350E+00 -1.193324198E-01
  1.881288540E+00 -1.608541517E-01
  5.442492580E-01  1.143456438E+00
   s   1
  1.687144782E-01  1.000000000E+00
   p   3
  7.868272350E+00  6.899906659E-02
  1.881288540E+00  3.164239610E-01
  5.442492580E-01  7.443082909E-01
   p   1
  1.687144782E-01  1.000000000E+00
   d   1
  8.000000000E-01  1.000000000E+00
 
   3
   s   6
  3.047524880E+03  1.834737132E-03
  4.573695180E+02  1.403732281E-02
  1.039486850E+02  6.884262227E-02
  2.921015530E+01  2.321844432E-01
  9.286662960E+00  4.679413484E-01
  3.163926960E+00  3.623119853E-01
   s   3
  7.868272350E+00 -1.193324198E-01
  1.881288540E+00 -1.608541517E-01
  5.442492580E-01  1.143456438E+00
   s   1
  1.687144782E-01  1.000000000E+00
   p   3
  7.868272350E+00  6.899906659E-02
  1.881288540E+00  3.164239610E-01
  5.442492580E-01  7.443082909E-01
   p   1
  1.687144782E-01  1.000000000E+00
   d   1
  8.000000000E-01  1.000000000E+00
 
   4
   s   6
  3.047524880E+03  1.834737132E-03
  4.573695180E+02  1.403732281E-02
  1.039486850E+02  6.884262227E-02
  2.921015530E+01  2.321844432E-01
  9.286662960E+00  4.679413484E-01
  3.163926960E+00  3.623119853E-01
   s   3
  7.868272350E+00 -1.193324198E-01
  1.881288540E+00 -1.608541517E-01
  5.442492580E-01  1.143456438E+00
   s   1
  1.687144782E-01  1.000000000E+00
   p   3
  7.868272350E+00  6.899906659E-02
  1.881288540E+00  3.164239610E-01
  5.442492580E-01  7.443082909E-01
   p   1
  1.687144782E-01  1.000000000E+00
   d   1
  8.000000000E-01  1.000000000E+00
 
   5
   s   6
  3.047524880E+03  1.834737132E-03
  4.573695180E+02  1.403732281E-02
  1.039486850E+02  6.884262227E-02
  2.921015530E+01  2.321844432E-01
  9.286662960E+00  4.679413484E-01
  3.163926960E+00  3.623119853E-01
   s   3
  7.868272350E+00 -1.193324198E-01
  1.881288540E+00 -1.608541517E-01
  5.442492580E-01  1.143456438E+00
   s   1
  1.687144782E-01  1.000000000E+00
   p   3
  7.868272350E+00  6.899906659E-02
  1.881288540E+00  3.164239610E-01
  5.442492580E-01  7.443082909E-01
   p   1
  1.687144782E-01  1.000000000E+00
   d   1
  8.000000000E-01  1.000000000E+00
 
   6
   s   6
  3.047524880E+03  1.834737132E-03
  4.573695180E+02  1.403732281E-02
  1.039486850E+02  6.884262227E-02
  2.921015530E+01  2.321844432E-01
  9.286662960E+00  4.679413484E-01
  3.163926960E+00  3.623119853E-01
   s   3
  7.868272350E+00 -1.193324198E-01
  1.881288540E+00 -1.608541517E-01
  5.442492580E-01  1.143456438E+00
   s   1
  1.687144782E-01  1.000000000E+00
   p   3
  7.868272350E+00  6.899906659E-02
  1.881288540E+00  3.164239610E-01
  5.442492580E-01  7.443082909E-01
   p   1
  1.687144782E-01  1.000000000E+00
   d   1
  8.000000000E-01  1.000000000E+00
 
   7
   s   3
  1.873113696E+01  3.349460434E-02
  2.825394365E+00  2.347269535E-01
  6.401216923E-01  8.137573261E-01
   s   1
  1.612777588E-01  1.000000000E+00
 
   8
   s   3
  1.873113696E+01  3.349460434E-02
  2.825394365E+00  2.347269535E-01
  6.401216923E-01  8.137573261E-01
   s   1
  1.612777588E-01  1.000000000E+00
 
   9
   s   3
  1.873113696E+01  3.349460434E-02
  2.825394365E+00  2.347269535E-01
  6.401216923E-01  8.137573261E-01
   s   1
  1.612777588E-01  1.000000000E+00
 
  10
   s   3
  1.873113696E+01  3.349460434E-02
  2.825394365E+00  2.347269535E-01
  6.401216923E-01  8.137573261E-01
   s   1
  1.612777588E-01  1.000000000E+00
 
[MO]
Sym=     1ag 
Ene=   -11.2340
Spin= Alpha
Occup=    2.00000
   1         0.49475408
   2         0.01371715
   3        -0.00418656
   4        -0.00006632
   5        -0.00023593
   6         0.00000000
   7         0.00013552
   8         0.00027911
   9         0.00000000
  10        -0.00083905
  11        -0.00132127
  12        -0.00132957
  13         0.00006188
  14         0.00000000
  15         0.00000000
  16         0.49475408
  17         0.01371715
  18        -0.00418656
  19         0.00006632
  20        -0.00023593
  21         0.00000000
  22        -0.00013552
  23         0.00027911
  24         0.00000000
  25        -0.00083905
  26        -0.00132127
  27        -0.00132957
  28        -0.00006188
  29         0.00000000
  30         0.00000000
  31         0.49475408
  32         0.01371715
  33        -0.00418656
  34        -0.00006632
  35         0.00023593
  36         0.00000000
  37         0.00013552
  38        -0.00027911
  39         0.00000000
  40        -0.00083905
  41        -0.00132127
  42        -0.00132957
  43        -0.00006188
  44         0.00000000
  45         0.00000000
  46         0.49475408
  47         0.01371715
  48        -0.00418656
  49         0.00006632
  50         0.00023593
  51         0.00000000
  52        -0.00013552
  53        -0.00027911
  54         0.00000000
  55        -0.00083905
  56        -0.00132127
  57        -0.00132957
  58         0.00006188
  59         0.00000000
  60         0.00000000
  61         0.07624960
  62         0.00182524
  63         0.00273365
  64         0.00000000
  65        -0.00015379
  66         0.00000000
  67         0.00000000
  68         0.00051747
  69         0.00000000
  70        -0.00037612
  71        -0.00043405
  72        -0.00032356
  73         0.00000000
  74         0.00000000
  75         0.00000000
  76         0.07624960
  77         0.00182524
  78         0.00273365
  79         0.00000000
  80         0.00015379
  81         0.00000000
  82         0.00000000
  83        -0.00051747
  84         0.00000000
  85        -0.00037612
  86        -0.00043405
  87        -0.00032356
  88         0.00000000
  89         0.00000000
  90         0.00000000
  91        -0.00013419
  92         0.00105262
  93        -0.00013419
  94         0.00105262
  95        -0.00013419
  96         0.00105262
  97        -0.00013419
  98         0.00105262
Sym=     2ag 
Ene=   -11.2230
Spin= Alpha
Occup=    2.00000
   1        -0.05456520
   2        -0.00162275
   3         0.00427635
   4         0.00022519
   5         0.00065425
   6         0.00000000
   7        -0.00207160
   8         0.00012232
   9         0.00000000
  10        -0.00010794
  11        -0.00006098
  12         0.00001522
  13        -0.00016738
  14         0.00000000
  15         0.00000000
  16        -0.05456520
  17        -0.00162275
  18         0.00427635
  19        -0.00022519
  20         0.00065425
  21         0.00000000
  22         0.00207160
  23         0.00012232
  24         0.00000000
  25        -0.00010794
  26        -0.00006098
  27         0.00001522
  28         0.00016738
  29         0.00000000
  30         0.00000000
  31        -0.05456520
  32        -0.00162275
  33         0.00427635
  34         0.00022519
  35        -0.00065425
  36         0.00000000
  37        -0.00207160
  38        -0.00012232
  39         0.00000000
  40        -0.00010794
  41        -0.00006098
  42         0.00001522
  43         0.00016738
  44         0.00000000
  45         0.00000000
  46        -0.05456520
  47        -0.00162275
  48         0.00427635
  49        -0.00022519
  50        -0.00065425
  51         0.00000000
  52         0.00207160
  53        -0.00012232
  54         0.00000000
  55        -0.00010794
  56        -0.00006098
  57         0.00001522
  58        -0.00016738
  59         0.00000000
  60         0.00000000
  61         0.70000547
  62         0.01954825
  63        -0.01137930
  64         0.00000000
  65         0.00104321
  66         0.00000000
  67         0.00000000
  68        -0.00262451
  69         0.00000000
  70        -0.00083283
  71        -0.00171222
  72        -0.00177104
  73         0.00000000
  74         0.00000000
  75         0.00000000
  76         0.70000547
  77         0.01954825
  78        -0.01137930
  79         0.00000000
  80        -0.00104321
  81         0.00000000
  82         0.00000000
  83         0.00262451
  84         0.00000000
  85        -0.00083283
  86        -0.00171222
  87        -0.00177104
  88         0.00000000
  89         0.00000000
  90         0.00000000
  91        -0.00002826
  92         0.00031237
  93        -0.00002826
  94         0.00031237
  95        -0.00002826
  96         0.00031237
  97        -0.00002826
  98         0.00031237
Sym=     3ag 
Ene=    -1.1143
Spin= Alpha
Occup=    2.00000
   1        -0.07847824
   2         0.14665771
   3         0.08764849
   4        -0.07499104
   5        -0.04934889
   6         0.00000000
   7        -0.00850205
   8        -0.02339688
   9         0.00000000
  10         0.01119674
  11         0.00201307
  12        -0.00726681
  13         0.00267754
  14         0.00000000
  15         0.00000000
  16        -0.07847824
  17         0.14665771
  18         0.08764849
  19         0.07499104
  20        -0.04934889
  21         0.00000000
  22         0.00850205
  23        -0.02339688
  24         0.00000000
  25         0.01119674
  26         0.00201307
  27        -0.00726681
  28        -0.00267754
  29         0.00000000
  30         0.00000000
  31        -0.07847824
  32         0.14665771
  33         0.08764849
  34        -0.07499104
  35         0.04934889
  36         0.00000000
  37        -0.00850205
  38         0.02339688
  39         0.00000000
  40         0.01119674
  41         0.00201307
  42        -0.00726681
  43        -0.00267754
  44         0.00000000
  45         0.00000000
  46        -0.07847824
  47         0.14665771
  48         0.08764849
  49         0.07499104
  50         0.04934889
  51         0.00000000
  52         0.00850205
  53         0.02339688
  54         0.00000000
  55         0.01119674
  56         0.00201307
  57        -0.00726681
  58         0.00267754
  59         0.00000000
  60         0.00000000
  61        -0.11808650
  62         0.22638641
  63         0.14332149
  64         0.00000000
  65         0.06735915
  66         0.00000000
  67         0.00000000
  68         0.01047054
  69         0.00000000
  70         0.01285175
  71        -0.00367987
  72        -0.00900812
  73         0.00000000
  74         0.00000000
  75         0.00000000
  76        -0.11808650
  77         0.22638641
  78         0.14332149
  79         0.00000000
  80        -0.06735915
  81         0.00000000
  82         0.00000000
  83        -0.01047054
  84         0.00000000
  85         0.01285175
  86        -0.00367987
  87        -0.00900812
  88         0.00000000
  89         0.00000000
  90         0.00000000
  91         0.03710818
  92         0.01141196
  93         0.03710818
  94         0.01141196
  95         0.03710818
  96         0.01141196
  97         0.03710818
  98         0.01141196
Sym=     4ag 
Ene=    -0.7538
Spin= Alpha
Occup=    2.00000
   1        -0.04024631
   2         0.07750151
   3         0.08096097
   4         0.19586687
   5        -0.03821758
   6         0.00000000
   7         0.07899706
   8        -0.02870942
   9         0.00000000
  10         0.00663111
  11         0.00359612
  12        -0.00296406
  13        -0.00604321
  14         0.00000000
  15         0.00000000
  16        -0.04024631
  17         0.07750151
  18         0.08096097
  19        -0.19586687
  20        -0.03821758
  21         0.00000000
  22        -0.07899706
  23        -0.02870942
  24         0.00000000
  25         0.00663111
  26         0.00359612
  27        -0.00296406
  28         0.00604321
  29         0.00000000
  30         0.00000000
  31        -0.04024631
  32         0.07750151
  33         0.08096097
  34         0.19586687
  35         0.03821758
  36         0.00000000
  37         0.07899706
  38         0.02870942
  39         0.00000000
  40         0.00663111
  41         0.00359612
  42        -0.00296406
  43         0.00604321
  44         0.00000000
  45         0.00000000
  46        -0.04024631
  47         0.07750151
  48         0.08096097
  49        -0.19586687
  50         0.03821758
  51         0.00000000
  52        -0.07899706
  53         0.02870942
  54         0.00000000
  55         0.00663111
  56         0.00359612
  57        -0.00296406
  58        -0.00604321
  59         0.00000000
  60         0.00000000
  61         0.04438483
  62        -0.08738619
  63        -0.03584266
  64         0.00000000
  65        -0.07833937
  66         0.00000000
  67         0.00000000
  68        -0.00734019
  69         0.00000000
  70         0.00252868
  71        -0.00652796
  72         0.00380194
  73         0.00000000
  74         0.00000000
  75         0.00000000
  76         0.04438483
  77        -0.08738619
  78        -0.03584266
  79         0.00000000
  80         0.07833937
  81         0.00000000
  82         0.00000000
  83         0.00734019
  84         0.00000000
  85         0.00252868
  86        -0.00652796
  87         0.00380194
  88         0.00000000
  89         0.00000000
  90         0.00000000
  91         0.13904861
  92         0.07211331
  93         0.13904861
  94         0.07211331
  95         0.13904861
  96         0.07211331
  97         0.13904861
  98         0.07211331
Sym=     5ag 
Ene=    -0.6844
Spin= Alpha
Occup=    1.97406
   1         0.05100295
   2        -0.10517268
   3        -0.07753663
   4        -0.00426969
   5        -0.25645127
   6         0.00000000
   7         0.00512461
   8        -0.09797732
   9         0.00000000
  10         0.00758259
  11        -0.01213586
  12         0.00384737
  13         0.00436018
  14         0.00000000
  15         0.00000000
  16         0.05100295
  17        -0.10517268
  18        -0.07753663
  19         0.00426969
  20        -0.25645127
  21         0.00000000
  22        -0.00512461
  23        -0.09797732
  24         0.00000000
  25         0.00758259
  26        -0.01213586
  27         0.00384737
  28        -0.00436018
  29         0.00000000
  30         0.00000000
  31         0.05100295
  32        -0.10517268
  33        -0.07753663
  34        -0.00426969
  35         0.25645127
  36         0.00000000
  37         0.00512461
  38         0.09797732
  39         0.00000000
  40         0.00758259
  41        -0.01213586
  42         0.00384737
  43        -0.00436018
  44         0.00000000
  45         0.00000000
  46         0.05100295
  47        -0.10517268
  48        -0.07753663
  49         0.00426969
  50         0.25645127
  51         0.00000000
  52        -0.00512461
  53         0.09797732
  54         0.00000000
  55         0.00758259
  56        -0.01213586
  57         0.00384737
  58         0.00436018
  59         0.00000000
  60         0.00000000
  61        -0.05407577
  62         0.11722790
  63         0.12883274
  64         0.00000000
  65        -0.08135504
  66         0.00000000
  67         0.00000000
  68        -0.02513543
  69         0.00000000
  70         0.01076246
  71        -0.01292453
  72        -0.00021375
  73         0.00000000
  74         0.00000000
  75         0.00000000
  76        -0.05407577
  77         0.11722790
  78         0.12883274
  79         0.00000000
  80         0.08135504
  81         0.00000000
  82         0.00000000
  83         0.02513543
  84         0.00000000
  85         0.01076246
  86        -0.01292453
  87        -0.00021375
  88         0.00000000
  89         0.00000000
  90         0.00000000
  91         0.02538358
  92         0.03515994
  93         0.02538358
  94         0.03515994
  95         0.02538358
  96         0.03515994
  97         0.02538358
  98         0.03515994
Sym=     6ag 
Ene=     0.0011
Spin= Alpha
Occup=    0.53354
   1        -0.00203535
   2         0.00434386
   3        -0.02703889
   4        -0.04196715
   5        -0.15587511
   6         0.00000000
   7         0.02656444
   8        -0.11589463
   9         0.00000000
  10         0.01899119
  11        -0.01477325
  12        -0.00105290
  13        -0.00866229
  14         0.00000000
  15         0.00000000
  16        -0.00203535
  17         0.00434386
  18        -0.02703889
  19         0.04196715
  20        -0.15587511
  21         0.00000000
  22        -0.02656444
  23        -0.11589463
  24         0.00000000
  25         0.01899119
  26        -0.01477325
  27        -0.00105290
  28         0.00866229
  29         0.00000000
  30         0.00000000
  31        -0.00203535
  32         0.00434386
  33        -0.02703889
  34        -0.04196715
  35         0.15587511
  36         0.00000000
  37         0.02656444
  38         0.11589463
  39         0.00000000
  40         0.01899119
  41        -0.01477325
  42        -0.00105290
  43         0.00866229
  44         0.00000000
  45         0.00000000
  46        -0.00203535
  47         0.00434386
  48        -0.02703889
  49         0.04196715
  50         0.15587511
  51         0.00000000
  52        -0.02656444
  53         0.11589463
  54         0.00000000
  55         0.01899119
  56        -0.01477325
  57        -0.00105290
  58        -0.00866229
  59         0.00000000
  60         0.00000000
  61         0.04937211
  62        -0.11447695
  63        -0.19256760
  64         0.00000000
  65         0.41595686
  66         0.00000000
  67         0.00000000
  68         0.32263710
  69         0.00000000
  70         0.01918343
  71        -0.01719995
  72         0.00078172
  73         0.00000000
  74         0.00000000
  75         0.00000000
  76         0.04937211
  77        -0.11447695
  78        -0.19256760
  79         0.00000000
  80        -0.41595686
  81         0.00000000
  82         0.00000000
  83        -0.32263710
  84         0.00000000
  85         0.01918343
  86        -0.01719995
  87         0.00078172
  88         0.00000000
  89         0.00000000
  90         0.00000000
  91         0.05306387
  92         0.04987835
  93         0.05306387
  94         0.04987835
  95         0.05306387
  96         0.04987835
  97         0.05306387
  98         0.04987835
Sym=     7ag 
Ene=     0.2592
Spin= Alpha
Occup=    0.00000
   1         0.05300860
   2        -0.08119175
   3        -0.69828781
   4        -0.08247757
   5         0.08862337
   6         0.00000000
   7        -0.48075137
   8         0.32014741
   9         0.00000000
  10         0.01119040
  11        -0.00532608
  12        -0.00074774
  13        -0.00293813
  14         0.00000000
  15         0.00000000
  16         0.05300860
  17        -0.08119175
  18        -0.69828781
  19         0.08247757
  20         0.08862337
  21         0.00000000
  22         0.48075137
  23         0.32014741
  24         0.00000000
  25         0.01119040
  26        -0.00532608
  27        -0.00074774
  28         0.00293813
  29         0.00000000
  30         0.00000000
  31         0.05300860
  32        -0.08119175
  33        -0.69828781
  34        -0.08247757
  35        -0.08862337
  36         0.00000000
  37        -0.48075137
  38        -0.32014741
  39         0.00000000
  40         0.01119040
  41        -0.00532608
  42        -0.00074774
  43         0.00293813
  44         0.00000000
  45         0.00000000
  46         0.05300860
  47        -0.08119175
  48        -0.69828781
  49         0.08247757
  50        -0.08862337
  51         0.00000000
  52         0.48075137
  53        -0.32014741
  54         0.00000000
  55         0.01119040
  56        -0.00532608
  57        -0.00074774
  58        -0.00293813
  59         0.00000000
  60         0.00000000
  61        -0.01203867
  62         0.03125165
  63        -0.09615972
  64         0.00000000
  65         0.02129263
  66         0.00000000
  67         0.00000000
  68        -0.34202114
  69         0.00000000
  70        -0.02107928
  71         0.01248396
  72         0.00352624
  73         0.00000000
  74         0.00000000
  75         0.00000000
  76        -0.01203867
  77         0.03125165
  78        -0.09615972
  79         0.00000000
  80        -0.02129263
  81         0.00000000
  82         0.00000000
  83         0.34202114
  84         0.00000000
  85        -0.02107928
  86         0.01248396
  87         0.00352624
  88         0.00000000
  89         0.00000000
  90         0.00000000
  91         0.01582962
  92         1.07951953
  93         0.01582962
  94         1.07951953
  95         0.01582962
  96         1.07951953
  97         0.01582962
  98         1.07951953
Sym=     8ag 
Ene=     0.4521
Spin= Alpha
Occup=    0.00000
   1         0.04280337
   2         0.01848189
   3        -1.45817597
   4         0.03814157
   5        -0.03158955
   6         0.00000000
   7         1.27226754
   8         0.37945245
   9         0.00000000
  10         0.00712174
  11        -0.01433767
  12         0.00690612
  13         0.01288933
  14         0.00000000
  15         0.00000000
  16         0.04280337
  17         0.01848189
  18        -1.45817597
  19        -0.03814157
  20        -0.03158955
  21         0.00000000
  22        -1.27226754
  23         0.37945245
  24         0.00000000
  25         0.00712174
  26        -0.01433767
  27         0.00690612
  28        -0.01288933
  29         0.00000000
  30         0.00000000
  31         0.04280337
  32         0.01848189
  33        -1.45817597
  34         0.03814157
  35         0.03158955
  36         0.00000000
  37         1.27226754
  38        -0.37945245
  39         0.00000000
  40         0.00712174
  41        -0.01433767
  42         0.00690612
  43        -0.01288933
  44         0.00000000
  45         0.00000000
  46         0.04280337
  47         0.01848189
  48        -1.45817597
  49        -0.03814157
  50         0.03158955
  51         0.00000000
  52        -1.27226754
  53        -0.37945245
  54         0.00000000
  55         0.00712174
  56        -0.01433767
  57         0.00690612
  58         0.01288933
  59         0.00000000
  60         0.00000000
  61        -0.10532421
  62         0.11261201
  63         3.42485759
  64         0.00000000
  65         0.02065969
  66         0.00000000
  67         0.00000000
  68         1.25569416
  69         0.00000000
  70         0.02788349
  71         0.00179449
  72        -0.00202183
  73         0.00000000
  74         0.00000000
  75         0.00000000
  76        -0.10532421
  77         0.11261201
  78         3.42485759
  79         0.00000000
  80        -0.02065969
  81         0.00000000
  82         0.00000000
  83        -1.25569416
  84         0.00000000
  85         0.02788349
  86         0.00179449
  87        -0.00202183
  88         0.00000000
  89         0.00000000
  90         0.00000000
  91         0.00968215
  92        -0.42581123
  93         0.00968215
  94        -0.42581123
  95         0.00968215
  96        -0.42581123
  97         0.00968215
  98        -0.42581123
Sym=     9ag 
Ene=     0.7219
Spin= Alpha
Occup=    0.00000
   1         0.01005781
   2        -0.44926628
   3         0.28196641
   4         0.24865160
   5        -0.05155715
   6         0.00000000
   7         0.00383853
   8         0.03333084
   9         0.00000000
  10         0.00220733
  11        -0.07786783
  12        -0.00981198
  13        -0.03147106
  14         0.00000000
  15         0.00000000
  16         0.01005781
  17        -0.44926628
  18         0.28196641
  19        -0.24865160
  20        -0.05155715
  21         0.00000000
  22        -0.00383853
  23         0.03333084
  24         0.00000000
  25         0.00220733
  26        -0.07786783
  27        -0.00981198
  28         0.03147106
  29         0.00000000
  30         0.00000000
  31         0.01005781
  32        -0.44926628
  33         0.28196641
  34         0.24865160
  35         0.05155715
  36         0.00000000
  37         0.00383853
  38        -0.03333084
  39         0.00000000
  40         0.00220733
  41        -0.07786783
  42        -0.00981198
  43         0.03147106
  44         0.00000000
  45         0.00000000
  46         0.01005781
  47        -0.44926628
  48         0.28196641
  49        -0.24865160
  50         0.05155715
  51         0.00000000
  52        -0.00383853
  53        -0.03333084
  54         0.00000000
  55         0.00220733
  56        -0.07786783
  57        -0.00981198
  58        -0.03147106
  59         0.00000000
  60         0.00000000
  61        -0.03073158
  62        -0.47333333
  63         0.83165573
  64         0.00000000
  65         0.01002010
  66         0.00000000
  67         0.00000000
  68         0.19126653
  69         0.00000000
  70        -0.11654115
  71        -0.01471533
  72         0.00912562
  73         0.00000000
  74         0.00000000
  75         0.00000000
  76        -0.03073158
  77        -0.47333333
  78         0.83165573
  79         0.00000000
  80        -0.01002010
  81         0.00000000
  82         0.00000000
  83        -0.19126653
  84         0.00000000
  85        -0.11654115
  86        -0.01471533
  87         0.00912562
  88         0.00000000
  89         0.00000000
  90         0.00000000
  91         0.10798398
  92        -0.29088246
  93         0.10798398
  94        -0.29088246
  95         0.10798398
  96        -0.29088246
  97         0.10798398
  98        -0.29088246
Sym=    10ag 
Ene=     0.8147
Spin= Alpha
Occup=    0.00000
   1         0.02779074
   2         0.21408241
   3        -0.49039277
   4         0.13924548
   5         0.17716047
   6         0.00000000
   7        -0.16428090
   8        -0.29523083
   9         0.00000000
  10         0.03998013
  11         0.06382396
  12        -0.02119196
  13        -0.03505340
  14         0.00000000
  15         0.00000000
  16         0.02779074
  17         0.21408241
  18        -0.49039277
  19        -0.13924548
  20         0.17716047
  21         0.00000000
  22         0.16428090
  23        -0.29523083
  24         0.00000000
  25         0.03998013
  26         0.06382396
  27        -0.02119196
  28         0.03505340
  29         0.00000000
  30         0.00000000
  31         0.02779074
  32         0.21408241
  33        -0.49039277
  34         0.13924548
  35        -0.17716047
  36         0.00000000
  37        -0.16428090
  38         0.29523083
  39         0.00000000
  40         0.03998013
  41         0.06382396
  42        -0.02119196
  43         0.03505340
  44         0.00000000
  45         0.00000000
  46         0.02779074
  47         0.21408241
  48        -0.49039277
  49        -0.13924548
  50        -0.17716047
  51         0.00000000
  52         0.16428090
  53         0.29523083
  54         0.00000000
  55         0.03998013
  56         0.06382396
  57        -0.02119196
  58        -0.03505340
  59         0.00000000
  60         0.00000000
  61        -0.03306602
  62         0.22892884
  63        -0.10510456
  64         0.00000000
  65        -0.38371112
  66         0.00000000
  67         0.00000000
  68         0.69916067
  69         0.00000000
  70        -0.02182789
  71         0.05621225
  72         0.02138694
  73         0.00000000
  74         0.00000000
  75         0.00000000
  76        -0.03306602
  77         0.22892884
  78        -0.10510456
  79         0.00000000
  80         0.38371112
  81         0.00000000
  82         0.00000000
  83        -0.69916067
  84         0.00000000
  85        -0.02182789
  86         0.05621225
  87         0.02138694
  88         0.00000000
  89         0.00000000
  90         0.00000000
  91         0.29725487
  92         0.04387281
  93         0.29725487
  94         0.04387281
  95         0.29725487
  96         0.04387281
  97         0.29725487
  98         0.04387281
Sym=    11ag 
Ene=     0.8445
Spin= Alpha
Occup=    0.00000
   1        -0.02281902
   2        -0.20767715
   3         0.19449083
   4        -0.16366987
   5        -0.06472461
   6         0.00000000
   7         0.41397637
   8        -0.25078381
   9         0.00000000
  10        -0.12190716
  11        -0.01029875
  12         0.04059018
  13        -0.01072989
  14         0.00000000
  15         0.00000000
  16        -0.02281902
  17        -0.20767715
  18         0.19449083
  19         0.16366987
  20        -0.06472461
  21         0.00000000
  22        -0.41397637