[Molden Format]
[N_Atoms]
                   10
[Atoms] (AU)
C1          1      6           2.29938715     -1.36449143      0.00000000
C1          2      6          -2.29938715     -1.36449143      0.00000000
C1          3      6           2.29938715      1.36449143      0.00000000
C1          4      6          -2.29938715      1.36449143      0.00000000
C2          5      6           0.00000000     -2.57816116      0.00000000
C2          6      6           0.00000000      2.57816116      0.00000000
H3          7      1           4.07100245      2.35373806      0.00000000
H3          8      1          -4.07100245      2.35373806      0.00000000
H3          9      1           4.07100245     -2.35373806      0.00000000
H3         10      1          -4.07100245     -2.35373806      0.00000000
[Charge] (Mulliken)
 -0.65421391905282533     
 -0.65421391905282533     
 -0.65421391905282533     
 -0.65421391905282533     
 -0.17938058653803068     
 -0.17938058653803068     
  0.83359450559061798     
  0.83359450559061798     
  0.83359450559061798     
  0.83359450559061798     
[GTO] (AU)
   1
   s   6
  3.047524880E+03  1.834737132E-03
  4.573695180E+02  1.403732281E-02
  1.039486850E+02  6.884262227E-02
  2.921015530E+01  2.321844432E-01
  9.286662960E+00  4.679413484E-01
  3.163926960E+00  3.623119853E-01
   s   3
  7.868272350E+00 -1.193324198E-01
  1.881288540E+00 -1.608541517E-01
  5.442492580E-01  1.143456438E+00
   s   1
  1.687144782E-01  1.000000000E+00
   p   3
  7.868272350E+00  6.899906659E-02
  1.881288540E+00  3.164239610E-01
  5.442492580E-01  7.443082909E-01
   p   1
  1.687144782E-01  1.000000000E+00
   d   1
  8.000000000E-01  1.000000000E+00
 
   2
   s   6
  3.047524880E+03  1.834737132E-03
  4.573695180E+02  1.403732281E-02
  1.039486850E+02  6.884262227E-02
  2.921015530E+01  2.321844432E-01
  9.286662960E+00  4.679413484E-01
  3.163926960E+00  3.623119853E-01
   s   3
  7.868272350E+00 -1.193324198E-01
  1.881288540E+00 -1.608541517E-01
  5.442492580E-01  1.143456438E+00
   s   1
  1.687144782E-01  1.000000000E+00
   p   3
  7.868272350E+00  6.899906659E-02
  1.881288540E+00  3.164239610E-01
  5.442492580E-01  7.443082909E-01
   p   1
  1.687144782E-01  1.000000000E+00
   d   1
  8.000000000E-01  1.000000000E+00
 
   3
   s   6
  3.047524880E+03  1.834737132E-03
  4.573695180E+02  1.403732281E-02
  1.039486850E+02  6.884262227E-02
  2.921015530E+01  2.321844432E-01
  9.286662960E+00  4.679413484E-01
  3.163926960E+00  3.623119853E-01
   s   3
  7.868272350E+00 -1.193324198E-01
  1.881288540E+00 -1.608541517E-01
  5.442492580E-01  1.143456438E+00
   s   1
  1.687144782E-01  1.000000000E+00
   p   3
  7.868272350E+00  6.899906659E-02
  1.881288540E+00  3.164239610E-01
  5.442492580E-01  7.443082909E-01
   p   1
  1.687144782E-01  1.000000000E+00
   d   1
  8.000000000E-01  1.000000000E+00
 
   4
   s   6
  3.047524880E+03  1.834737132E-03
  4.573695180E+02  1.403732281E-02
  1.039486850E+02  6.884262227E-02
  2.921015530E+01  2.321844432E-01
  9.286662960E+00  4.679413484E-01
  3.163926960E+00  3.623119853E-01
   s   3
  7.868272350E+00 -1.193324198E-01
  1.881288540E+00 -1.608541517E-01
  5.442492580E-01  1.143456438E+00
   s   1
  1.687144782E-01  1.000000000E+00
   p   3
  7.868272350E+00  6.899906659E-02
  1.881288540E+00  3.164239610E-01
  5.442492580E-01  7.443082909E-01
   p   1
  1.687144782E-01  1.000000000E+00
   d   1
  8.000000000E-01  1.000000000E+00
 
   5
   s   6
  3.047524880E+03  1.834737132E-03
  4.573695180E+02  1.403732281E-02
  1.039486850E+02  6.884262227E-02
  2.921015530E+01  2.321844432E-01
  9.286662960E+00  4.679413484E-01
  3.163926960E+00  3.623119853E-01
   s   3
  7.868272350E+00 -1.193324198E-01
  1.881288540E+00 -1.608541517E-01
  5.442492580E-01  1.143456438E+00
   s   1
  1.687144782E-01  1.000000000E+00
   p   3
  7.868272350E+00  6.899906659E-02
  1.881288540E+00  3.164239610E-01
  5.442492580E-01  7.443082909E-01
   p   1
  1.687144782E-01  1.000000000E+00
   d   1
  8.000000000E-01  1.000000000E+00
 
   6
   s   6
  3.047524880E+03  1.834737132E-03
  4.573695180E+02  1.403732281E-02
  1.039486850E+02  6.884262227E-02
  2.921015530E+01  2.321844432E-01
  9.286662960E+00  4.679413484E-01
  3.163926960E+00  3.623119853E-01
   s   3
  7.868272350E+00 -1.193324198E-01
  1.881288540E+00 -1.608541517E-01
  5.442492580E-01  1.143456438E+00
   s   1
  1.687144782E-01  1.000000000E+00
   p   3
  7.868272350E+00  6.899906659E-02
  1.881288540E+00  3.164239610E-01
  5.442492580E-01  7.443082909E-01
   p   1
  1.687144782E-01  1.000000000E+00
   d   1
  8.000000000E-01  1.000000000E+00
 
   7
   s   3
  1.873113696E+01  3.349460434E-02
  2.825394365E+00  2.347269535E-01
  6.401216923E-01  8.137573261E-01
   s   1
  1.612777588E-01  1.000000000E+00
 
   8
   s   3
  1.873113696E+01  3.349460434E-02
  2.825394365E+00  2.347269535E-01
  6.401216923E-01  8.137573261E-01
   s   1
  1.612777588E-01  1.000000000E+00
 
   9
   s   3
  1.873113696E+01  3.349460434E-02
  2.825394365E+00  2.347269535E-01
  6.401216923E-01  8.137573261E-01
   s   1
  1.612777588E-01  1.000000000E+00
 
  10
   s   3
  1.873113696E+01  3.349460434E-02
  2.825394365E+00  2.347269535E-01
  6.401216923E-01  8.137573261E-01
   s   1
  1.612777588E-01  1.000000000E+00
 
[MO]
Sym=     1ag 
Ene=   -11.2630
Spin= Alpha
Occup=    2.00000
   1        -0.49771644
   2        -0.01369384
   3         0.00466442
   4         0.00006801
   5         0.00026799
   6         0.00000000
   7        -0.00044356
   8        -0.00029346
   9         0.00000000
  10         0.00090131
  11         0.00117009
  12         0.00133807
  13        -0.00007143
  14         0.00000000
  15         0.00000000
  16        -0.49771644
  17        -0.01369384
  18         0.00466442
  19        -0.00006801
  20         0.00026799
  21         0.00000000
  22         0.00044356
  23        -0.00029346
  24         0.00000000
  25         0.00090131
  26         0.00117009
  27         0.00133807
  28         0.00007143
  29         0.00000000
  30         0.00000000
  31        -0.49771644
  32        -0.01369384
  33         0.00466442
  34         0.00006801
  35        -0.00026799
  36         0.00000000
  37        -0.00044356
  38         0.00029346
  39         0.00000000
  40         0.00090131
  41         0.00117009
  42         0.00133807
  43         0.00007143
  44         0.00000000
  45         0.00000000
  46        -0.49771644
  47        -0.01369384
  48         0.00466442
  49        -0.00006801
  50        -0.00026799
  51         0.00000000
  52         0.00044356
  53         0.00029346
  54         0.00000000
  55         0.00090131
  56         0.00117009
  57         0.00133807
  58        -0.00007143
  59         0.00000000
  60         0.00000000
  61        -0.01037675
  62        -0.00007487
  63        -0.00393773
  64         0.00000000
  65         0.00018405
  66         0.00000000
  67         0.00000000
  68        -0.00092534
  69         0.00000000
  70         0.00041368
  71         0.00024589
  72         0.00016492
  73         0.00000000
  74         0.00000000
  75         0.00000000
  76        -0.01037675
  77        -0.00007487
  78        -0.00393773
  79         0.00000000
  80        -0.00018405
  81         0.00000000
  82         0.00000000
  83         0.00092534
  84         0.00000000
  85         0.00041368
  86         0.00024589
  87         0.00016492
  88         0.00000000
  89         0.00000000
  90         0.00000000
  91         0.00010181
  92        -0.00098638
  93         0.00010181
  94        -0.00098638
  95         0.00010181
  96        -0.00098638
  97         0.00010181
  98        -0.00098638
Sym=     2ag 
Ene=   -11.2050
Spin= Alpha
Occup=    2.00000
   1        -0.00784249
   2        -0.00036049
   3         0.00331825
   4         0.00022351
   5         0.00017571
   6         0.00000000
   7        -0.00183899
   8         0.00012175
   9         0.00000000
  10        -0.00033684
  11        -0.00022362
  12        -0.00012839
  13        -0.00023028
  14         0.00000000
  15         0.00000000
  16        -0.00784249
  17        -0.00036049
  18         0.00331825
  19        -0.00022351
  20         0.00017571
  21         0.00000000
  22         0.00183899
  23         0.00012175
  24         0.00000000
  25        -0.00033684
  26        -0.00022362
  27        -0.00012839
  28         0.00023028
  29         0.00000000
  30         0.00000000
  31        -0.00784249
  32        -0.00036049
  33         0.00331825
  34         0.00022351
  35        -0.00017571
  36         0.00000000
  37        -0.00183899
  38        -0.00012175
  39         0.00000000
  40        -0.00033684
  41        -0.00022362
  42        -0.00012839
  43         0.00023028
  44         0.00000000
  45         0.00000000
  46        -0.00784249
  47        -0.00036049
  48         0.00331825
  49        -0.00022351
  50        -0.00017571
  51         0.00000000
  52         0.00183899
  53        -0.00012175
  54         0.00000000
  55        -0.00033684
  56        -0.00022362
  57        -0.00012839
  58        -0.00023028
  59         0.00000000
  60         0.00000000
  61         0.70406390
  62         0.01933294
  63        -0.01001792
  64         0.00000000
  65         0.00156466
  66         0.00000000
  67         0.00000000
  68        -0.00263023
  69         0.00000000
  70        -0.00077480
  71        -0.00145329
  72        -0.00169467
  73         0.00000000
  74         0.00000000
  75         0.00000000
  76         0.70406390
  77         0.01933294
  78        -0.01001792
  79         0.00000000
  80        -0.00156466
  81         0.00000000
  82         0.00000000
  83         0.00263023
  84         0.00000000
  85        -0.00077480
  86        -0.00145329
  87        -0.00169467
  88         0.00000000
  89         0.00000000
  90         0.00000000
  91         0.00003124
  92         0.00046932
  93         0.00003124
  94         0.00046932
  95         0.00003124
  96         0.00046932
  97         0.00003124
  98         0.00046932
Sym=     3ag 
Ene=    -1.0795
Spin= Alpha
Occup=    2.00000
   1        -0.07163060
   2         0.13575628
   3         0.07251293
   4        -0.08435769
   5        -0.07841463
   6         0.00000000
   7        -0.01659703
   8        -0.03118903
   9         0.00000000
  10         0.01311662
  11        -0.00026223
  12        -0.00687241
  13         0.00133240
  14         0.00000000
  15         0.00000000
  16        -0.07163060
  17         0.13575628
  18         0.07251293
  19         0.08435769
  20        -0.07841463
  21         0.00000000
  22         0.01659703
  23        -0.03118903
  24         0.00000000
  25         0.01311662
  26        -0.00026223
  27        -0.00687241
  28        -0.00133240
  29         0.00000000
  30         0.00000000
  31        -0.07163060
  32         0.13575628
  33         0.07251293
  34        -0.08435769
  35         0.07841463
  36         0.00000000
  37        -0.01659703
  38         0.03118903
  39         0.00000000
  40         0.01311662
  41        -0.00026223
  42        -0.00687241
  43        -0.00133240
  44         0.00000000
  45         0.00000000
  46        -0.07163060
  47         0.13575628
  48         0.07251293
  49         0.08435769
  50         0.07841463
  51         0.00000000
  52         0.01659703
  53         0.03118903
  54         0.00000000
  55         0.01311662
  56        -0.00026223
  57        -0.00687241
  58         0.00133240
  59         0.00000000
  60         0.00000000
  61        -0.11496707
  62         0.21864465
  63         0.14468029
  64         0.00000000
  65         0.08660698
  66         0.00000000
  67         0.00000000
  68         0.03193476
  69         0.00000000
  70         0.01238035
  71        -0.00092458
  72        -0.00972376
  73         0.00000000
  74         0.00000000
  75         0.00000000
  76        -0.11496707
  77         0.21864465
  78         0.14468029
  79         0.00000000
  80        -0.08660698
  81         0.00000000
  82         0.00000000
  83        -0.03193476
  84         0.00000000
  85         0.01238035
  86        -0.00092458
  87        -0.00972376
  88         0.00000000
  89         0.00000000
  90         0.00000000
  91         0.04151835
  92         0.02322574
  93         0.04151835
  94         0.02322574
  95         0.04151835
  96         0.02322574
  97         0.04151835
  98         0.02322574
Sym=     4ag 
Ene=    -0.7565
Spin= Alpha
Occup=    2.00000
   1        -0.04054537
   2         0.08113869
   3         0.07456717
   4         0.19211082
   5        -0.06101119
   6         0.00000000
   7         0.08133266
   8        -0.03782064
   9         0.00000000
  10         0.00601906
  11         0.00346951
  12        -0.00280834
  13        -0.00760822
  14         0.00000000
  15         0.00000000
  16        -0.04054537
  17         0.08113869
  18         0.07456717
  19        -0.19211082
  20        -0.06101119
  21         0.00000000
  22        -0.08133266
  23        -0.03782064
  24         0.00000000
  25         0.00601906
  26         0.00346951
  27        -0.00280834
  28         0.00760822
  29         0.00000000
  30         0.00000000
  31        -0.04054537
  32         0.08113869
  33         0.07456717
  34         0.19211082
  35         0.06101119
  36         0.00000000
  37         0.08133266
  38         0.03782064
  39         0.00000000
  40         0.00601906
  41         0.00346951
  42        -0.00280834
  43         0.00760822
  44         0.00000000
  45         0.00000000
  46        -0.04054537
  47         0.08113869
  48         0.07456717
  49        -0.19211082
  50         0.06101119
  51         0.00000000
  52        -0.08133266
  53         0.03782064
  54         0.00000000
  55         0.00601906
  56         0.00346951
  57        -0.00280834
  58        -0.00760822
  59         0.00000000
  60         0.00000000
  61         0.04016544
  62        -0.07687585
  63        -0.04193762
  64         0.00000000
  65        -0.06348256
  66         0.00000000
  67         0.00000000
  68         0.00781430
  69         0.00000000
  70         0.00431561
  71        -0.00734540
  72         0.00331416
  73         0.00000000
  74         0.00000000
  75         0.00000000
  76         0.04016544
  77        -0.07687585
  78        -0.04193762
  79         0.00000000
  80         0.06348256
  81         0.00000000
  82         0.00000000
  83        -0.00781430
  84         0.00000000
  85         0.00431561
  86        -0.00734540
  87         0.00331416
  88         0.00000000
  89         0.00000000
  90         0.00000000
  91         0.14247519
  92         0.07567426
  93         0.14247519
  94         0.07567426
  95         0.14247519
  96         0.07567426
  97         0.14247519
  98         0.07567426
Sym=     5ag 
Ene=    -0.7540
Spin= Alpha
Occup=    1.98082
   1         0.06268366
   2        -0.12905919
   3        -0.09843778
   4        -0.01545707
   5        -0.27076545
   6         0.00000000
   7         0.00010637
   8        -0.09199750
   9         0.00000000
  10         0.01146984
  11        -0.01570631
  12         0.00534098
  13         0.00060147
  14         0.00000000
  15         0.00000000
  16         0.06268366
  17        -0.12905919
  18        -0.09843778
  19         0.01545707
  20        -0.27076545
  21         0.00000000
  22        -0.00010637
  23        -0.09199750
  24         0.00000000
  25         0.01146984
  26        -0.01570631
  27         0.00534098
  28        -0.00060147
  29         0.00000000
  30         0.00000000
  31         0.06268366
  32        -0.12905919
  33        -0.09843778
  34        -0.01545707
  35         0.27076545
  36         0.00000000
  37         0.00010637
  38         0.09199750
  39         0.00000000
  40         0.01146984
  41        -0.01570631
  42         0.00534098
  43        -0.00060147
  44         0.00000000
  45         0.00000000
  46         0.06268366
  47        -0.12905919
  48        -0.09843778
  49         0.01545707
  50         0.27076545
  51         0.00000000
  52        -0.00010637
  53         0.09199750
  54         0.00000000
  55         0.01146984
  56        -0.01570631
  57         0.00534098
  58         0.00060147
  59         0.00000000
  60         0.00000000
  61        -0.04039124
  62         0.08624391
  63         0.09578773
  64         0.00000000
  65        -0.02948177
  66         0.00000000
  67         0.00000000
  68         0.01633656
  69         0.00000000
  70         0.00732252
  71        -0.01018515
  72        -0.00054647
  73         0.00000000
  74         0.00000000
  75         0.00000000
  76        -0.04039124
  77         0.08624391
  78         0.09578773
  79         0.00000000
  80         0.02948177
  81         0.00000000
  82         0.00000000
  83        -0.01633656
  84         0.00000000
  85         0.00732252
  86        -0.01018515
  87        -0.00054647
  88         0.00000000
  89         0.00000000
  90         0.00000000
  91         0.02910522
  92         0.04654563
  93         0.02910522
  94         0.04654563
  95         0.02910522
  96         0.04654563
  97         0.02910522
  98         0.04654563
Sym=     6ag 
Ene=     0.0078
Spin= Alpha
Occup=    1.84475
   1         0.00032789
   2         0.00352490
   3        -0.06933717
   4        -0.05541874
   5        -0.11474506
   6         0.00000000
   7        -0.03062979
   8        -0.05451224
   9         0.00000000
  10         0.01800404
  11        -0.01464740
  12        -0.00097147
  13        -0.01700879
  14         0.00000000
  15         0.00000000
  16         0.00032789
  17         0.00352490
  18        -0.06933717
  19         0.05541874
  20        -0.11474506
  21         0.00000000
  22         0.03062979
  23        -0.05451224
  24         0.00000000
  25         0.01800404
  26        -0.01464740
  27        -0.00097147
  28         0.01700879
  29         0.00000000
  30         0.00000000
  31         0.00032789
  32         0.00352490
  33        -0.06933717
  34        -0.05541874
  35         0.11474506
  36         0.00000000
  37        -0.03062979
  38         0.05451224
  39         0.00000000
  40         0.01800404
  41        -0.01464740
  42        -0.00097147
  43         0.01700879
  44         0.00000000
  45         0.00000000
  46         0.00032789
  47         0.00352490
  48        -0.06933717
  49         0.05541874
  50         0.11474506
  51         0.00000000
  52         0.03062979
  53         0.05451224
  54         0.00000000
  55         0.01800404
  56        -0.01464740
  57        -0.00097147
  58        -0.01700879
  59         0.00000000
  60         0.00000000
  61         0.06688170
  62        -0.12506442
  63        -0.28988605
  64         0.00000000
  65         0.34596524
  66         0.00000000
  67         0.00000000
  68         0.32613901
  69         0.00000000
  70         0.00418896
  71         0.01390095
  72        -0.00877792
  73         0.00000000
  74         0.00000000
  75         0.00000000
  76         0.06688170
  77        -0.12506442
  78        -0.28988605
  79         0.00000000
  80        -0.34596524
  81         0.00000000
  82         0.00000000
  83        -0.32613901
  84         0.00000000
  85         0.00418896
  86         0.01390095
  87        -0.00877792
  88         0.00000000
  89         0.00000000
  90         0.00000000
  91         0.05807719
  92         0.12199234
  93         0.05807719
  94         0.12199234
  95         0.05807719
  96         0.12199234
  97         0.05807719
  98         0.12199234
Sym=     7ag 
Ene=     0.2591
Spin= Alpha
Occup=    0.00000
   1         0.05204711
   2        -0.08249094
   3        -0.76852438
   4        -0.07680234
   5         0.10798874
   6         0.00000000
   7        -0.39218656
   8         0.36863924
   9         0.00000000
  10         0.00808187
  11        -0.00338083
  12        -0.00142243
  13        -0.00494798
  14         0.00000000
  15         0.00000000
  16         0.05204711
  17        -0.08249094
  18        -0.76852438
  19         0.07680234
  20         0.10798874
  21         0.00000000
  22         0.39218656
  23         0.36863924
  24         0.00000000
  25         0.00808187
  26        -0.00338083
  27        -0.00142243
  28         0.00494798
  29         0.00000000
  30         0.00000000
  31         0.05204711
  32        -0.08249094
  33        -0.76852438
  34        -0.07680234
  35        -0.10798874
  36         0.00000000
  37        -0.39218656
  38        -0.36863924
  39         0.00000000
  40         0.00808187
  41        -0.00338083
  42        -0.00142243
  43         0.00494798
  44         0.00000000
  45         0.00000000
  46         0.05204711
  47        -0.08249094
  48        -0.76852438
  49         0.07680234
  50        -0.10798874
  51         0.00000000
  52         0.39218656
  53        -0.36863924
  54         0.00000000
  55         0.00808187
  56        -0.00338083
  57        -0.00142243
  58        -0.00494798
  59         0.00000000
  60         0.00000000
  61        -0.01493783
  62         0.01771762
  63         0.11979169
  64         0.00000000
  65        -0.00678608
  66         0.00000000
  67         0.00000000
  68        -0.27818231
  69         0.00000000
  70        -0.01815709
  71         0.01030527
  72         0.00192229
  73         0.00000000
  74         0.00000000
  75         0.00000000
  76        -0.01493783
  77         0.01771762
  78         0.11979169
  79         0.00000000
  80         0.00678608
  81         0.00000000
  82         0.00000000
  83         0.27818231
  84         0.00000000
  85        -0.01815709
  86         0.01030527
  87         0.00192229
  88         0.00000000
  89         0.00000000
  90         0.00000000
  91         0.01248505
  92         1.05925288
  93         0.01248505
  94         1.05925288
  95         0.01248505
  96         1.05925288
  97         0.01248505
  98         1.05925288
Sym=     8ag 
Ene=     0.4271
Spin= Alpha
Occup=    0.00000
   1         0.04287923
   2        -0.01953672
   3        -1.21506584
   4         0.05940901
   5        -0.02901998
   6         0.00000000
   7         1.09051627
   8         0.36547515
   9         0.00000000
  10         0.01184450
  11        -0.01955142
  12         0.00336806
  13         0.01610667
  14         0.00000000
  15         0.00000000
  16         0.04287923
  17        -0.01953672
  18        -1.21506584
  19        -0.05940901
  20        -0.02901998
  21         0.00000000
  22        -1.09051627
  23         0.36547515
  24         0.00000000
  25         0.01184450
  26        -0.01955142
  27         0.00336806
  28        -0.01610667
  29         0.00000000
  30         0.00000000
  31         0.04287923
  32        -0.01953672
  33        -1.21506584
  34         0.05940901
  35         0.02901998
  36         0.00000000
  37         1.09051627
  38        -0.36547515
  39         0.00000000
  40         0.01184450
  41        -0.01955142
  42         0.00336806
  43        -0.01610667
  44         0.00000000
  45         0.00000000
  46         0.04287923
  47        -0.01953672
  48        -1.21506584
  49        -0.05940901
  50         0.02901998
  51         0.00000000
  52        -1.09051627
  53        -0.36547515
  54         0.00000000
  55         0.01184450
  56        -0.01955142
  57         0.00336806
  58         0.01610667
  59         0.00000000
  60         0.00000000
  61        -0.10615327
  62         0.09105064
  63         2.90436566
  64         0.00000000
  65         0.06834998
  66         0.00000000
  67         0.00000000
  68         1.10915528
  69         0.00000000
  70         0.01773927
  71         0.00197905
  72        -0.00257261
  73         0.00000000
  74         0.00000000
  75         0.00000000
  76        -0.10615327
  77         0.09105064
  78         2.90436566
  79         0.00000000
  80        -0.06834998
  81         0.00000000
  82         0.00000000
  83        -1.10915528
  84         0.00000000
  85         0.01773927
  86         0.00197905
  87        -0.00257261
  88         0.00000000
  89         0.00000000
  90         0.00000000
  91        -0.01637640
  92        -0.33112999
  93        -0.01637640
  94        -0.33112999
  95        -0.01637640
  96        -0.33112999
  97        -0.01637640
  98        -0.33112999
Sym=     9ag 
Ene=     0.7007
Spin= Alpha
Occup=    0.00000
   1         0.00253257
   2        -0.45982690
   3         0.46069611
   4         0.25796332
   5        -0.06646472
   6         0.00000000
   7        -0.14377211
   8         0.04836049
   9         0.00000000
  10        -0.00608827
  11        -0.07501796
  12        -0.00859210
  13        -0.03207766
  14         0.00000000
  15         0.00000000
  16         0.00253257
  17        -0.45982690
  18         0.46069611
  19        -0.25796332
  20        -0.06646472
  21         0.00000000
  22         0.14377211
  23         0.04836049
  24         0.00000000
  25        -0.00608827
  26        -0.07501796
  27        -0.00859210
  28         0.03207766
  29         0.00000000
  30         0.00000000
  31         0.00253257
  32        -0.45982690
  33         0.46069611
  34         0.25796332
  35         0.06646472
  36         0.00000000
  37        -0.14377211
  38        -0.04836049
  39         0.00000000
  40        -0.00608827
  41        -0.07501796
  42        -0.00859210
  43         0.03207766
  44         0.00000000
  45         0.00000000
  46         0.00253257
  47        -0.45982690
  48         0.46069611
  49        -0.25796332
  50         0.06646472
  51         0.00000000
  52         0.14377211
  53        -0.04836049
  54         0.00000000
  55        -0.00608827
  56        -0.07501796
  57        -0.00859210
  58        -0.03207766
  59         0.00000000
  60         0.00000000
  61        -0.01823008
  62        -0.44564018
  63         0.40061826
  64         0.00000000
  65        -0.03059986
  66         0.00000000
  67         0.00000000
  68         0.02177885
  69         0.00000000
  70        -0.11650395
  71        -0.01313172
  72         0.00450063
  73         0.00000000
  74         0.00000000
  75         0.00000000
  76        -0.01823008
  77        -0.44564018
  78         0.40061826
  79         0.00000000
  80         0.03059986
  81         0.00000000
  82         0.00000000
  83        -0.02177885
  84         0.00000000
  85        -0.11650395
  86        -0.01313172
  87         0.00450063
  88         0.00000000
  89         0.00000000
  90         0.00000000
  91         0.09193023
  92        -0.23914308
  93         0.09193023
  94        -0.23914308
  95         0.09193023
  96        -0.23914308
  97         0.09193023
  98        -0.23914308
Sym=    10ag 
Ene=     0.7923
Spin= Alpha
Occup=    0.00000
   1         0.03887428
   2         0.26304685
   3        -0.59301980
   4         0.23367317
   5         0.21170585
   6         0.00000000
   7        -0.21529751
   8        -0.16058293
   9         0.00000000
  10         0.08154019
  11         0.05785065
  12        -0.03574893
  13        -0.02153088
  14         0.00000000
  15         0.00000000
  16         0.03887428
  17         0.26304685
  18        -0.59301980
  19        -0.23367317
  20         0.21170585
  21         0.00000000
  22         0.21529751
  23        -0.16058293
  24         0.00000000
  25         0.08154019
  26         0.05785065
  27        -0.03574893
  28         0.02153088
  29         0.00000000
  30         0.00000000
  31         0.03887428
  32         0.26304685
  33        -0.59301980
  34         0.23367317
  35        -0.21170585
  36         0.00000000
  37        -0.21529751
  38         0.16058293
  39         0.00000000
  40         0.08154019
  41         0.05785065
  42        -0.03574893
  43         0.02153088
  44         0.00000000
  45         0.00000000
  46         0.03887428
  47         0.26304685
  48        -0.59301980
  49        -0.23367317
  50        -0.21170585
  51         0.00000000
  52         0.21529751
  53         0.16058293
  54         0.00000000
  55         0.08154019
  56         0.05785065
  57        -0.03574893
  58        -0.02153088
  59         0.00000000
  60         0.00000000
  61        -0.05175239
  62         0.26197745
  63         0.05076025
  64         0.00000000
  65        -0.06964253
  66         0.00000000
  67         0.00000000
  68         0.30254888
  69         0.00000000
  70        -0.05523438
  71         0.04645783
  72         0.02420296
  73         0.00000000
  74         0.00000000
  75         0.00000000
  76        -0.05175239
  77         0.26197745
  78         0.05076025
  79         0.00000000
  80         0.06964253
  81         0.00000000
  82         0.00000000
  83        -0.30254888
  84         0.00000000
  85        -0.05523438
  86         0.04645783
  87         0.02420296
  88         0.00000000
  89         0.00000000
  90         0.00000000
  91         0.33309371
  92         0.03079565
  93         0.33309371
  94         0.03079565
  95         0.33309371
  96         0.03079565
  97         0.33309371
  98         0.03079565
Sym=    11ag 
Ene=     0.8541
Spin= Alpha
Occup=    0.00000
   1        -0.00639399
   2        -0.05695899
   3        -0.13471967
   4        -0.13033122
   5         0.00928841
   6         0.00000000
   7         0.37141866
   8        -0.25234121
   9         0.00000000
  10        -0.08534619
  11         0.01684901
  12         0.02621275
  13        -0.03922512
  14         0.00000000
  15         0.00000000
  16        -0.00639399
  17        -0.05695899
  18        -0.13471967
  19         0.13033122
  20         0.00928841
  21         0.00000000
  22        -0.37141866