[Molden Format]
[N_Atoms]
                   10
[Atoms] (AU)
C1          1      6           2.29938716     -1.36449144      0.00000000
C1          2      6          -2.29938716     -1.36449144      0.00000000
C1          3      6           2.29938716      1.36449144      0.00000000
C1          4      6          -2.29938716      1.36449144      0.00000000
C2          5      6           0.00000000     -2.57816115      0.00000000
C2          6      6           0.00000000      2.57816115      0.00000000
H3          7      1           4.07100245      2.35373806      0.00000000
H3          8      1          -4.07100245      2.35373806      0.00000000
H3          9      1           4.07100245     -2.35373806      0.00000000
H3         10      1          -4.07100245     -2.35373806      0.00000000
[Charge] (Mulliken)
 -0.89584205786104221     
 -0.89584205786104221     
 -0.89584205786104221     
 -0.89584205786104221     
   4.8383162316808281E-002
   4.8383162316808281E-002
  0.84745889554411047     
  0.84745889554411047     
  0.84745889554411047     
  0.84745889554411047     
[GTO] (AU)
   1
   s   6
  3.047524880E+03  1.834737132E-03
  4.573695180E+02  1.403732281E-02
  1.039486850E+02  6.884262227E-02
  2.921015530E+01  2.321844432E-01
  9.286662960E+00  4.679413484E-01
  3.163926960E+00  3.623119853E-01
   s   3
  7.868272350E+00 -1.193324198E-01
  1.881288540E+00 -1.608541517E-01
  5.442492580E-01  1.143456438E+00
   s   1
  1.687144782E-01  1.000000000E+00
   p   3
  7.868272350E+00  6.899906659E-02
  1.881288540E+00  3.164239610E-01
  5.442492580E-01  7.443082909E-01
   p   1
  1.687144782E-01  1.000000000E+00
   d   1
  8.000000000E-01  1.000000000E+00
 
   2
   s   6
  3.047524880E+03  1.834737132E-03
  4.573695180E+02  1.403732281E-02
  1.039486850E+02  6.884262227E-02
  2.921015530E+01  2.321844432E-01
  9.286662960E+00  4.679413484E-01
  3.163926960E+00  3.623119853E-01
   s   3
  7.868272350E+00 -1.193324198E-01
  1.881288540E+00 -1.608541517E-01
  5.442492580E-01  1.143456438E+00
   s   1
  1.687144782E-01  1.000000000E+00
   p   3
  7.868272350E+00  6.899906659E-02
  1.881288540E+00  3.164239610E-01
  5.442492580E-01  7.443082909E-01
   p   1
  1.687144782E-01  1.000000000E+00
   d   1
  8.000000000E-01  1.000000000E+00
 
   3
   s   6
  3.047524880E+03  1.834737132E-03
  4.573695180E+02  1.403732281E-02
  1.039486850E+02  6.884262227E-02
  2.921015530E+01  2.321844432E-01
  9.286662960E+00  4.679413484E-01
  3.163926960E+00  3.623119853E-01
   s   3
  7.868272350E+00 -1.193324198E-01
  1.881288540E+00 -1.608541517E-01
  5.442492580E-01  1.143456438E+00
   s   1
  1.687144782E-01  1.000000000E+00
   p   3
  7.868272350E+00  6.899906659E-02
  1.881288540E+00  3.164239610E-01
  5.442492580E-01  7.443082909E-01
   p   1
  1.687144782E-01  1.000000000E+00
   d   1
  8.000000000E-01  1.000000000E+00
 
   4
   s   6
  3.047524880E+03  1.834737132E-03
  4.573695180E+02  1.403732281E-02
  1.039486850E+02  6.884262227E-02
  2.921015530E+01  2.321844432E-01
  9.286662960E+00  4.679413484E-01
  3.163926960E+00  3.623119853E-01
   s   3
  7.868272350E+00 -1.193324198E-01
  1.881288540E+00 -1.608541517E-01
  5.442492580E-01  1.143456438E+00
   s   1
  1.687144782E-01  1.000000000E+00
   p   3
  7.868272350E+00  6.899906659E-02
  1.881288540E+00  3.164239610E-01
  5.442492580E-01  7.443082909E-01
   p   1
  1.687144782E-01  1.000000000E+00
   d   1
  8.000000000E-01  1.000000000E+00
 
   5
   s   6
  3.047524880E+03  1.834737132E-03
  4.573695180E+02  1.403732281E-02
  1.039486850E+02  6.884262227E-02
  2.921015530E+01  2.321844432E-01
  9.286662960E+00  4.679413484E-01
  3.163926960E+00  3.623119853E-01
   s   3
  7.868272350E+00 -1.193324198E-01
  1.881288540E+00 -1.608541517E-01
  5.442492580E-01  1.143456438E+00
   s   1
  1.687144782E-01  1.000000000E+00
   p   3
  7.868272350E+00  6.899906659E-02
  1.881288540E+00  3.164239610E-01
  5.442492580E-01  7.443082909E-01
   p   1
  1.687144782E-01  1.000000000E+00
   d   1
  8.000000000E-01  1.000000000E+00
 
   6
   s   6
  3.047524880E+03  1.834737132E-03
  4.573695180E+02  1.403732281E-02
  1.039486850E+02  6.884262227E-02
  2.921015530E+01  2.321844432E-01
  9.286662960E+00  4.679413484E-01
  3.163926960E+00  3.623119853E-01
   s   3
  7.868272350E+00 -1.193324198E-01
  1.881288540E+00 -1.608541517E-01
  5.442492580E-01  1.143456438E+00
   s   1
  1.687144782E-01  1.000000000E+00
   p   3
  7.868272350E+00  6.899906659E-02
  1.881288540E+00  3.164239610E-01
  5.442492580E-01  7.443082909E-01
   p   1
  1.687144782E-01  1.000000000E+00
   d   1
  8.000000000E-01  1.000000000E+00
 
   7
   s   3
  1.873113696E+01  3.349460434E-02
  2.825394365E+00  2.347269535E-01
  6.401216923E-01  8.137573261E-01
   s   1
  1.612777588E-01  1.000000000E+00
 
   8
   s   3
  1.873113696E+01  3.349460434E-02
  2.825394365E+00  2.347269535E-01
  6.401216923E-01  8.137573261E-01
   s   1
  1.612777588E-01  1.000000000E+00
 
   9
   s   3
  1.873113696E+01  3.349460434E-02
  2.825394365E+00  2.347269535E-01
  6.401216923E-01  8.137573261E-01
   s   1
  1.612777588E-01  1.000000000E+00
 
  10
   s   3
  1.873113696E+01  3.349460434E-02
  2.825394365E+00  2.347269535E-01
  6.401216923E-01  8.137573261E-01
   s   1
  1.612777588E-01  1.000000000E+00
 
[MO]
Sym=     1ag 
Ene=   -11.2370
Spin= Alpha
Occup=    2.00000
   1         0.32494163
   2         0.00895060
   3        -0.00049286
   4         0.00008659
   5         0.00019194
   6         0.00000000
   7        -0.00107464
   8         0.00030995
   9         0.00000000
  10        -0.00077316
  11        -0.00092971
  12        -0.00095103
  13        -0.00008928
  14         0.00000000
  15         0.00000000
  16         0.32494163
  17         0.00895060
  18        -0.00049286
  19        -0.00008659
  20         0.00019194
  21         0.00000000
  22         0.00107464
  23         0.00030995
  24         0.00000000
  25        -0.00077316
  26        -0.00092971
  27        -0.00095103
  28         0.00008928
  29         0.00000000
  30         0.00000000
  31         0.32494163
  32         0.00895060
  33        -0.00049286
  34         0.00008659
  35        -0.00019194
  36         0.00000000
  37        -0.00107464
  38        -0.00030995
  39         0.00000000
  40        -0.00077316
  41        -0.00092971
  42        -0.00095103
  43         0.00008928
  44         0.00000000
  45         0.00000000
  46         0.32494163
  47         0.00895060
  48        -0.00049286
  49        -0.00008659
  50        -0.00019194
  51         0.00000000
  52         0.00107464
  53        -0.00030995
  54         0.00000000
  55        -0.00077316
  56        -0.00092971
  57        -0.00095103
  58        -0.00008928
  59         0.00000000
  60         0.00000000
  61         0.53290899
  62         0.01441921
  63        -0.00500837
  64         0.00000000
  65         0.00052411
  66         0.00000000
  67         0.00000000
  68        -0.00112878
  69         0.00000000
  70        -0.00095937
  71        -0.00139497
  72        -0.00134439
  73         0.00000000
  74         0.00000000
  75         0.00000000
  76         0.53290899
  77         0.01441921
  78        -0.00500837
  79         0.00000000
  80        -0.00052411
  81         0.00000000
  82         0.00000000
  83         0.00112878
  84         0.00000000
  85        -0.00095937
  86        -0.00139497
  87        -0.00134439
  88         0.00000000
  89         0.00000000
  90         0.00000000
  91        -0.00010305
  92         0.00094579
  93        -0.00010305
  94         0.00094579
  95        -0.00010305
  96         0.00094579
  97        -0.00010305
  98         0.00094579
Sym=     2ag 
Ene=   -11.2350
Spin= Alpha
Occup=    2.00000
   1        -0.37703665
   2        -0.01045231
   3         0.00564295
   4         0.00017206
   5         0.00046700
   6         0.00000000
   7        -0.00147961
   8        -0.00021008
   9         0.00000000
  10         0.00053645
  11         0.00077006
  12         0.00088981
  13        -0.00014669
  14         0.00000000
  15         0.00000000
  16        -0.37703665
  17        -0.01045231
  18         0.00564295
  19        -0.00017206
  20         0.00046700
  21         0.00000000
  22         0.00147961
  23        -0.00021008
  24         0.00000000
  25         0.00053645
  26         0.00077006
  27         0.00088981
  28         0.00014669
  29         0.00000000
  30         0.00000000
  31        -0.37703665
  32        -0.01045231
  33         0.00564295
  34         0.00017206
  35        -0.00046700
  36         0.00000000
  37        -0.00147961
  38         0.00021008
  39         0.00000000
  40         0.00053645
  41         0.00077006
  42         0.00088981
  43         0.00014669
  44         0.00000000
  45         0.00000000
  46        -0.37703665
  47        -0.01045231
  48         0.00564295
  49        -0.00017206
  50        -0.00046700
  51         0.00000000
  52         0.00147961
  53         0.00021008
  54         0.00000000
  55         0.00053645
  56         0.00077006
  57         0.00088981
  58        -0.00014669
  59         0.00000000
  60         0.00000000
  61         0.46030211
  62         0.01273474
  63        -0.00944673
  64         0.00000000
  65         0.00070443
  66         0.00000000
  67         0.00000000
  68        -0.00216379
  69         0.00000000
  70        -0.00030935
  71        -0.00089872
  72        -0.00098776
  73         0.00000000
  74         0.00000000
  75         0.00000000
  76         0.46030211
  77         0.01273474
  78        -0.00944673
  79         0.00000000
  80        -0.00070443
  81         0.00000000
  82         0.00000000
  83         0.00216379
  84         0.00000000
  85        -0.00030935
  86        -0.00089872
  87        -0.00098776
  88         0.00000000
  89         0.00000000
  90         0.00000000
  91         0.00006140
  92        -0.00049365
  93         0.00006140
  94        -0.00049365
  95         0.00006140
  96        -0.00049365
  97         0.00006140
  98        -0.00049365
Sym=     3ag 
Ene=    -1.0897
Spin= Alpha
Occup=    2.00000
   1        -0.07539770
   2         0.14146807
   3         0.08507652
   4        -0.07311505
   5        -0.05849528
   6         0.00000000
   7        -0.00929475
   8        -0.02845579
   9         0.00000000
  10         0.01103811
  11         0.00215530
  12        -0.00703365
  13         0.00217716
  14         0.00000000
  15         0.00000000
  16        -0.07539770
  17         0.14146807
  18         0.08507652
  19         0.07311505
  20        -0.05849528
  21         0.00000000
  22         0.00929475
  23        -0.02845579
  24         0.00000000
  25         0.01103811
  26         0.00215530
  27        -0.00703365
  28        -0.00217716
  29         0.00000000
  30         0.00000000
  31        -0.07539770
  32         0.14146807
  33         0.08507652
  34        -0.07311505
  35         0.05849528
  36         0.00000000
  37        -0.00929475
  38         0.02845579
  39         0.00000000
  40         0.01103811
  41         0.00215530
  42        -0.00703365
  43        -0.00217716
  44         0.00000000
  45         0.00000000
  46        -0.07539770
  47         0.14146807
  48         0.08507652
  49         0.07311505
  50         0.05849528
  51         0.00000000
  52         0.00929475
  53         0.02845579
  54         0.00000000
  55         0.01103811
  56         0.00215530
  57        -0.00703365
  58         0.00217716
  59         0.00000000
  60         0.00000000
  61        -0.11565575
  62         0.22499502
  63         0.15234785
  64         0.00000000
  65         0.07198854
  66         0.00000000
  67         0.00000000
  68         0.01800206
  69         0.00000000
  70         0.01344440
  71        -0.00301453
  72        -0.00888994
  73         0.00000000
  74         0.00000000
  75         0.00000000
  76        -0.11565575
  77         0.22499502
  78         0.15234785
  79         0.00000000
  80        -0.07198854
  81         0.00000000
  82         0.00000000
  83        -0.01800206
  84         0.00000000
  85         0.01344440
  86        -0.00301453
  87        -0.00888994
  88         0.00000000
  89         0.00000000
  90         0.00000000
  91         0.04049099
  92         0.01376540
  93         0.04049099
  94         0.01376540
  95         0.04049099
  96         0.01376540
  97         0.04049099
  98         0.01376540
Sym=     4ag 
Ene=    -0.7417
Spin= Alpha
Occup=    2.00000
   1        -0.03956195
   2         0.07630792
   3         0.08310311
   4         0.19373096
   5        -0.05004688
   6         0.00000000
   7         0.07584943
   8        -0.03417105
   9         0.00000000
  10         0.00527688
  11         0.00406865
  12        -0.00294654
  13        -0.00729416
  14         0.00000000
  15         0.00000000
  16        -0.03956195
  17         0.07630792
  18         0.08310311
  19        -0.19373096
  20        -0.05004688
  21         0.00000000
  22        -0.07584943
  23        -0.03417105
  24         0.00000000
  25         0.00527688
  26         0.00406865
  27        -0.00294654
  28         0.00729416
  29         0.00000000
  30         0.00000000
  31        -0.03956195
  32         0.07630792
  33         0.08310311
  34         0.19373096
  35         0.05004688
  36         0.00000000
  37         0.07584943
  38         0.03417105
  39         0.00000000
  40         0.00527688
  41         0.00406865
  42        -0.00294654
  43         0.00729416
  44         0.00000000
  45         0.00000000
  46        -0.03956195
  47         0.07630792
  48         0.08310311
  49        -0.19373096
  50         0.05004688
  51         0.00000000
  52        -0.07584943
  53         0.03417105
  54         0.00000000
  55         0.00527688
  56         0.00406865
  57        -0.00294654
  58        -0.00729416
  59         0.00000000
  60         0.00000000
  61         0.04355847
  62        -0.08750693
  63        -0.05392767
  64         0.00000000
  65        -0.07537239
  66         0.00000000
  67         0.00000000
  68        -0.01037848
  69         0.00000000
  70         0.00312798
  71        -0.00632667
  72         0.00340556
  73         0.00000000
  74         0.00000000
  75         0.00000000
  76         0.04355847
  77        -0.08750693
  78        -0.05392767
  79         0.00000000
  80         0.07537239
  81         0.00000000
  82         0.00000000
  83         0.01037848
  84         0.00000000
  85         0.00312798
  86        -0.00632667
  87         0.00340556
  88         0.00000000
  89         0.00000000
  90         0.00000000
  91         0.13973840
  92         0.07530299
  93         0.13973840
  94         0.07530299
  95         0.13973840
  96         0.07530299
  97         0.13973840
  98         0.07530299
Sym=     5ag 
Ene=    -0.7143
Spin= Alpha
Occup=    1.97704
   1         0.05886730
   2        -0.12139605
   3        -0.08420688
   4        -0.00861945
   5        -0.26034545
   6         0.00000000
   7         0.00231020
   8        -0.09300620
   9         0.00000000
  10         0.00966045
  11        -0.01263831
  12         0.00425634
  13         0.00317671
  14         0.00000000
  15         0.00000000
  16         0.05886730
  17        -0.12139605
  18        -0.08420688
  19         0.00861945
  20        -0.26034545
  21         0.00000000
  22        -0.00231020
  23        -0.09300620
  24         0.00000000
  25         0.00966045
  26        -0.01263831
  27         0.00425634
  28        -0.00317671
  29         0.00000000
  30         0.00000000
  31         0.05886730
  32        -0.12139605
  33        -0.08420688
  34        -0.00861945
  35         0.26034545
  36         0.00000000
  37         0.00231020
  38         0.09300620
  39         0.00000000
  40         0.00966045
  41        -0.01263831
  42         0.00425634
  43        -0.00317671
  44         0.00000000
  45         0.00000000
  46         0.05886730
  47        -0.12139605
  48        -0.08420688
  49         0.00861945
  50         0.26034545
  51         0.00000000
  52        -0.00231020
  53         0.09300620
  54         0.00000000
  55         0.00966045
  56        -0.01263831
  57         0.00425634
  58         0.00317671
  59         0.00000000
  60         0.00000000
  61        -0.05028147
  62         0.10989254
  63         0.11888377
  64         0.00000000
  65        -0.05617446
  66         0.00000000
  67         0.00000000
  68        -0.01270125
  69         0.00000000
  70         0.00836420
  71        -0.01116734
  72        -0.00052898
  73         0.00000000
  74         0.00000000
  75         0.00000000
  76        -0.05028147
  77         0.10989254
  78         0.11888377
  79         0.00000000
  80         0.05617446
  81         0.00000000
  82         0.00000000
  83         0.01270125
  84         0.00000000
  85         0.00836420
  86        -0.01116734
  87        -0.00052898
  88         0.00000000
  89         0.00000000
  90         0.00000000
  91         0.02747106
  92         0.03723288
  93         0.02747106
  94         0.03723288
  95         0.02747106
  96         0.03723288
  97         0.02747106
  98         0.03723288
Sym=     6ag 
Ene=     0.0035
Spin= Alpha
Occup=    0.69601
   1        -0.00267738
   2         0.00537533
   3        -0.01191233
   4        -0.04560445
   5        -0.13947659
   6         0.00000000
   7         0.01110257
   8        -0.10050547
   9         0.00000000
  10         0.01670888
  11        -0.01209067
  12        -0.00144856
  13        -0.00931652
  14         0.00000000
  15         0.00000000
  16        -0.00267738
  17         0.00537533
  18        -0.01191233
  19         0.04560445
  20        -0.13947659
  21         0.00000000
  22        -0.01110257
  23        -0.10050547
  24         0.00000000
  25         0.01670888
  26        -0.01209067
  27        -0.00144856
  28         0.00931652
  29         0.00000000
  30         0.00000000
  31        -0.00267738
  32         0.00537533
  33        -0.01191233
  34        -0.04560445
  35         0.13947659
  36         0.00000000
  37         0.01110257
  38         0.10050547
  39         0.00000000
  40         0.01670888
  41        -0.01209067
  42        -0.00144856
  43         0.00931652
  44         0.00000000
  45         0.00000000
  46        -0.00267738
  47         0.00537533
  48        -0.01191233
  49         0.04560445
  50         0.13947659
  51         0.00000000
  52        -0.01110257
  53         0.10050547
  54         0.00000000
  55         0.01670888
  56        -0.01209067
  57        -0.00144856
  58        -0.00931652
  59         0.00000000
  60         0.00000000
  61         0.05834911
  62        -0.13163578
  63        -0.23324112
  64         0.00000000
  65         0.40328141
  66         0.00000000
  67         0.00000000
  68         0.30930945
  69         0.00000000
  70         0.01858665
  71        -0.01399325
  72         0.00019719
  73         0.00000000
  74         0.00000000
  75         0.00000000
  76         0.05834911
  77        -0.13163578
  78        -0.23324112
  79         0.00000000
  80        -0.40328141
  81         0.00000000
  82         0.00000000
  83        -0.30930945
  84         0.00000000
  85         0.01858665
  86        -0.01399325
  87         0.00019719
  88         0.00000000
  89         0.00000000
  90         0.00000000
  91         0.04968796
  92         0.04914601
  93         0.04968796
  94         0.04914601
  95         0.04968796
  96         0.04914601
  97         0.04968796
  98         0.04914601
Sym=     7ag 
Ene=     0.2642
Spin= Alpha
Occup=    0.00000
   1         0.05127976
   2        -0.07679612
   3        -0.75527146
   4        -0.08193092
   5         0.09464957
   6         0.00000000
   7        -0.42070771
   8         0.36178024
   9         0.00000000
  10         0.00978641
  11        -0.00481921
  12        -0.00068279
  13        -0.00558738
  14         0.00000000
  15         0.00000000
  16         0.05127976
  17        -0.07679612
  18        -0.75527146
  19         0.08193092
  20         0.09464957
  21         0.00000000
  22         0.42070771
  23         0.36178024
  24         0.00000000
  25         0.00978641
  26        -0.00481921
  27        -0.00068279
  28         0.00558738
  29         0.00000000
  30         0.00000000
  31         0.05127976
  32        -0.07679612
  33        -0.75527146
  34        -0.08193092
  35        -0.09464957
  36         0.00000000
  37        -0.42070771
  38        -0.36178024
  39         0.00000000
  40         0.00978641
  41        -0.00481921
  42        -0.00068279
  43         0.00558738
  44         0.00000000
  45         0.00000000
  46         0.05127976
  47        -0.07679612
  48        -0.75527146
  49         0.08193092
  50        -0.09464957
  51         0.00000000
  52         0.42070771
  53        -0.36178024
  54         0.00000000
  55         0.00978641
  56        -0.00481921
  57        -0.00068279
  58        -0.00558738
  59         0.00000000
  60         0.00000000
  61        -0.00854238
  62         0.01271089
  63         0.03435619
  64         0.00000000
  65         0.02207302
  66         0.00000000
  67         0.00000000
  68        -0.28299789
  69         0.00000000
  70        -0.01944398
  71         0.01223052
  72         0.00181470
  73         0.00000000
  74         0.00000000
  75         0.00000000
  76        -0.00854238
  77         0.01271089
  78         0.03435619
  79         0.00000000
  80        -0.02207302
  81         0.00000000
  82         0.00000000
  83         0.28299789
  84         0.00000000
  85        -0.01944398
  86         0.01223052
  87         0.00181470
  88         0.00000000
  89         0.00000000
  90         0.00000000
  91         0.01653945
  92         1.07926386
  93         0.01653945
  94         1.07926386
  95         0.01653945
  96         1.07926386
  97         0.01653945
  98         1.07926386
Sym=     8ag 
Ene=     0.4313
Spin= Alpha
Occup=    0.00000
   1         0.04434172
   2        -0.00987012
   3        -1.24679369
   4         0.05735354
   5        -0.02345744
   6         0.00000000
   7         1.08615594
   8         0.36189456
   9         0.00000000
  10         0.01034238
  11        -0.01729673
  12         0.00499138
  13         0.01409514
  14         0.00000000
  15         0.00000000
  16         0.04434172
  17        -0.00987012
  18        -1.24679369
  19        -0.05735354
  20        -0.02345744
  21         0.00000000
  22        -1.08615594
  23         0.36189456
  24         0.00000000
  25         0.01034238
  26        -0.01729673
  27         0.00499138
  28        -0.01409514
  29         0.00000000
  30         0.00000000
  31         0.04434172
  32        -0.00987012
  33        -1.24679369
  34         0.05735354
  35         0.02345744
  36         0.00000000
  37         1.08615594
  38        -0.36189456
  39         0.00000000
  40         0.01034238
  41        -0.01729673
  42         0.00499138
  43        -0.01409514
  44         0.00000000
  45         0.00000000
  46         0.04434172
  47        -0.00987012
  48        -1.24679369
  49        -0.05735354
  50         0.02345744
  51         0.00000000
  52        -1.08615594
  53        -0.36189456
  54         0.00000000
  55         0.01034238
  56        -0.01729673
  57         0.00499138
  58         0.01409514
  59         0.00000000
  60         0.00000000
  61        -0.10596988
  62         0.10794849
  63         2.89289837
  64         0.00000000
  65         0.04857196
  66         0.00000000
  67         0.00000000
  68         1.13661806
  69         0.00000000
  70         0.01844278
  71         0.00248592
  72        -0.00103814
  73         0.00000000
  74         0.00000000
  75         0.00000000
  76        -0.10596988
  77         0.10794849
  78         2.89289837
  79         0.00000000
  80        -0.04857196
  81         0.00000000
  82         0.00000000
  83        -1.13661806
  84         0.00000000
  85         0.01844278
  86         0.00248592
  87        -0.00103814
  88         0.00000000
  89         0.00000000
  90         0.00000000
  91        -0.00973542
  92        -0.30803526
  93        -0.00973542
  94        -0.30803526
  95        -0.00973542
  96        -0.30803526
  97        -0.00973542
  98        -0.30803526
Sym=     9ag 
Ene=     0.7201
Spin= Alpha
Occup=    0.00000
   1         0.00406026
   2        -0.45267378
   3         0.41801285
   4         0.25472713
   5        -0.06640550
   6         0.00000000
   7        -0.11154860
   8         0.06402293
   9         0.00000000
  10        -0.00275558
  11        -0.07594687
  12        -0.00903150
  13        -0.03097064
  14         0.00000000
  15         0.00000000
  16         0.00406026
  17        -0.45267378
  18         0.41801285
  19        -0.25472713
  20        -0.06640550
  21         0.00000000
  22         0.11154860
  23         0.06402293
  24         0.00000000
  25        -0.00275558
  26        -0.07594687
  27        -0.00903150
  28         0.03097064
  29         0.00000000
  30         0.00000000
  31         0.00406026
  32        -0.45267378
  33         0.41801285
  34         0.25472713
  35         0.06640550
  36         0.00000000
  37        -0.11154860
  38        -0.06402293
  39         0.00000000
  40        -0.00275558
  41        -0.07594687
  42        -0.00903150
  43         0.03097064
  44         0.00000000
  45         0.00000000
  46         0.00406026
  47        -0.45267378
  48         0.41801285
  49        -0.25472713
  50         0.06640550
  51         0.00000000
  52         0.11154860
  53        -0.06402293
  54         0.00000000
  55        -0.00275558
  56        -0.07594687
  57        -0.00903150
  58        -0.03097064
  59         0.00000000
  60         0.00000000
  61        -0.02033376
  62        -0.46804590
  63         0.51939955
  64         0.00000000
  65         0.01882523
  66         0.00000000
  67         0.00000000
  68         0.00927164
  69         0.00000000
  70        -0.12266881
  71        -0.01561963
  72         0.00656762
  73         0.00000000
  74         0.00000000
  75         0.00000000
  76        -0.02033376
  77        -0.46804590
  78         0.51939955
  79         0.00000000
  80        -0.01882523
  81         0.00000000
  82         0.00000000
  83        -0.00927164
  84         0.00000000
  85        -0.12266881
  86        -0.01561963
  87         0.00656762
  88         0.00000000
  89         0.00000000
  90         0.00000000
  91         0.09326416
  92        -0.24974224
  93         0.09326416
  94        -0.24974224
  95         0.09326416
  96        -0.24974224
  97         0.09326416
  98        -0.24974224
Sym=    10ag 
Ene=     0.7988
Spin= Alpha
Occup=    0.00000
   1         0.03125477
   2         0.20090432
   3        -0.50183509
   4         0.17086493
   5         0.18358007
   6         0.00000000
   7        -0.12845839
   8        -0.25168611
   9         0.00000000
  10         0.04589747
  11         0.05430884
  12        -0.02358614
  13        -0.03599636
  14         0.00000000
  15         0.00000000
  16         0.03125477
  17         0.20090432
  18        -0.50183509
  19        -0.17086493
  20         0.18358007
  21         0.00000000
  22         0.12845839
  23        -0.25168611
  24         0.00000000
  25         0.04589747
  26         0.05430884
  27        -0.02358614
  28         0.03599636
  29         0.00000000
  30         0.00000000
  31         0.03125477
  32         0.20090432
  33        -0.50183509
  34         0.17086493
  35        -0.18358007
  36         0.00000000
  37        -0.12845839
  38         0.25168611
  39         0.00000000
  40         0.04589747
  41         0.05430884
  42        -0.02358614
  43         0.03599636
  44         0.00000000
  45         0.00000000
  46         0.03125477
  47         0.20090432
  48        -0.50183509
  49        -0.17086493
  50        -0.18358007
  51         0.00000000
  52         0.12845839
  53         0.25168611
  54         0.00000000
  55         0.04589747
  56         0.05430884
  57        -0.02358614
  58        -0.03599636
  59         0.00000000
  60         0.00000000
  61        -0.04120612
  62         0.23266066
  63         0.01807804
  64         0.00000000
  65        -0.32641898
  66         0.00000000
  67         0.00000000
  68         0.65794172
  69         0.00000000
  70        -0.03224474
  71         0.05196263
  72         0.02499731
  73         0.00000000
  74         0.00000000
  75         0.00000000
  76        -0.04120612
  77         0.23266066
  78         0.01807804
  79         0.00000000
  80         0.32641898
  81         0.00000000
  82         0.00000000
  83        -0.65794172
  84         0.00000000
  85        -0.03224474
  86         0.05196263
  87         0.02499731
  88         0.00000000
  89         0.00000000
  90         0.00000000
  91         0.31292620
  92        -0.01132989
  93         0.31292620
  94        -0.01132989
  95         0.31292620
  96        -0.01132989
  97         0.31292620
  98        -0.01132989
Sym=    11ag 
Ene=     0.8365
Spin= Alpha
Occup=    0.00000
   1        -0.02129499
   2        -0.18163452
   3         0.17104391
   4        -0.18969958
   5        -0.07627578
   6         0.00000000
   7         0.38135541
   8        -0.20396634
   9         0.00000000
  10        -0.10783345
  11        -0.01109733
  12         0.03620565
  13        -0.02642045
  14         0.00000000
  15         0.00000000
  16        -0.02129499
  17        -0.18163452
  18         0.17104391
  19         0.18969958
  20        -0.07627578
  21         0.00000000
  22        -0.38135541