[Molden Format]
[N_Atoms]
                   10
[Atoms] (AU)
C1          1      6           2.24059237     -1.40668514      0.00000000
C1          2      6          -2.24059237     -1.40668514      0.00000000
C1          3      6           2.24059237      1.40668514      0.00000000
C1          4      6          -2.24059237      1.40668514      0.00000000
C2          5      6           0.00000000     -2.53575672      0.00000000
C2          6      6           0.00000000      2.53575672      0.00000000
H3          7      1           4.08990946      2.23412236      0.00000000
H3          8      1          -4.08990946      2.23412236      0.00000000
H3          9      1           4.08990946     -2.23412236      0.00000000
H3         10      1          -4.08990946     -2.23412236      0.00000000
[Charge] (Mulliken)
  -1.0852783722302632     
  -1.0852783722302632     
  -1.0852783722302632     
  -1.0852783722302632     
   9.5964302481650776E-002
   9.5964302481650776E-002
  0.98931406974860803     
  0.98931406974860803     
  0.98931406974860803     
  0.98931406974860803     
[GTO] (AU)
   1
   s   6
  3.047524880E+03  1.834737132E-03
  4.573695180E+02  1.403732281E-02
  1.039486850E+02  6.884262227E-02
  2.921015530E+01  2.321844432E-01
  9.286662960E+00  4.679413484E-01
  3.163926960E+00  3.623119853E-01
   s   3
  7.868272350E+00 -1.193324198E-01
  1.881288540E+00 -1.608541517E-01
  5.442492580E-01  1.143456438E+00
   s   1
  1.687144782E-01  1.000000000E+00
   p   3
  7.868272350E+00  6.899906659E-02
  1.881288540E+00  3.164239610E-01
  5.442492580E-01  7.443082909E-01
   p   1
  1.687144782E-01  1.000000000E+00
   d   1
  8.000000000E-01  1.000000000E+00
 
   2
   s   6
  3.047524880E+03  1.834737132E-03
  4.573695180E+02  1.403732281E-02
  1.039486850E+02  6.884262227E-02
  2.921015530E+01  2.321844432E-01
  9.286662960E+00  4.679413484E-01
  3.163926960E+00  3.623119853E-01
   s   3
  7.868272350E+00 -1.193324198E-01
  1.881288540E+00 -1.608541517E-01
  5.442492580E-01  1.143456438E+00
   s   1
  1.687144782E-01  1.000000000E+00
   p   3
  7.868272350E+00  6.899906659E-02
  1.881288540E+00  3.164239610E-01
  5.442492580E-01  7.443082909E-01
   p   1
  1.687144782E-01  1.000000000E+00
   d   1
  8.000000000E-01  1.000000000E+00
 
   3
   s   6
  3.047524880E+03  1.834737132E-03
  4.573695180E+02  1.403732281E-02
  1.039486850E+02  6.884262227E-02
  2.921015530E+01  2.321844432E-01
  9.286662960E+00  4.679413484E-01
  3.163926960E+00  3.623119853E-01
   s   3
  7.868272350E+00 -1.193324198E-01
  1.881288540E+00 -1.608541517E-01
  5.442492580E-01  1.143456438E+00
   s   1
  1.687144782E-01  1.000000000E+00
   p   3
  7.868272350E+00  6.899906659E-02
  1.881288540E+00  3.164239610E-01
  5.442492580E-01  7.443082909E-01
   p   1
  1.687144782E-01  1.000000000E+00
   d   1
  8.000000000E-01  1.000000000E+00
 
   4
   s   6
  3.047524880E+03  1.834737132E-03
  4.573695180E+02  1.403732281E-02
  1.039486850E+02  6.884262227E-02
  2.921015530E+01  2.321844432E-01
  9.286662960E+00  4.679413484E-01
  3.163926960E+00  3.623119853E-01
   s   3
  7.868272350E+00 -1.193324198E-01
  1.881288540E+00 -1.608541517E-01
  5.442492580E-01  1.143456438E+00
   s   1
  1.687144782E-01  1.000000000E+00
   p   3
  7.868272350E+00  6.899906659E-02
  1.881288540E+00  3.164239610E-01
  5.442492580E-01  7.443082909E-01
   p   1
  1.687144782E-01  1.000000000E+00
   d   1
  8.000000000E-01  1.000000000E+00
 
   5
   s   6
  3.047524880E+03  1.834737132E-03
  4.573695180E+02  1.403732281E-02
  1.039486850E+02  6.884262227E-02
  2.921015530E+01  2.321844432E-01
  9.286662960E+00  4.679413484E-01
  3.163926960E+00  3.623119853E-01
   s   3
  7.868272350E+00 -1.193324198E-01
  1.881288540E+00 -1.608541517E-01
  5.442492580E-01  1.143456438E+00
   s   1
  1.687144782E-01  1.000000000E+00
   p   3
  7.868272350E+00  6.899906659E-02
  1.881288540E+00  3.164239610E-01
  5.442492580E-01  7.443082909E-01
   p   1
  1.687144782E-01  1.000000000E+00
   d   1
  8.000000000E-01  1.000000000E+00
 
   6
   s   6
  3.047524880E+03  1.834737132E-03
  4.573695180E+02  1.403732281E-02
  1.039486850E+02  6.884262227E-02
  2.921015530E+01  2.321844432E-01
  9.286662960E+00  4.679413484E-01
  3.163926960E+00  3.623119853E-01
   s   3
  7.868272350E+00 -1.193324198E-01
  1.881288540E+00 -1.608541517E-01
  5.442492580E-01  1.143456438E+00
   s   1
  1.687144782E-01  1.000000000E+00
   p   3
  7.868272350E+00  6.899906659E-02
  1.881288540E+00  3.164239610E-01
  5.442492580E-01  7.443082909E-01
   p   1
  1.687144782E-01  1.000000000E+00
   d   1
  8.000000000E-01  1.000000000E+00
 
   7
   s   3
  1.873113696E+01  3.349460434E-02
  2.825394365E+00  2.347269535E-01
  6.401216923E-01  8.137573261E-01
   s   1
  1.612777588E-01  1.000000000E+00
 
   8
   s   3
  1.873113696E+01  3.349460434E-02
  2.825394365E+00  2.347269535E-01
  6.401216923E-01  8.137573261E-01
   s   1
  1.612777588E-01  1.000000000E+00
 
   9
   s   3
  1.873113696E+01  3.349460434E-02
  2.825394365E+00  2.347269535E-01
  6.401216923E-01  8.137573261E-01
   s   1
  1.612777588E-01  1.000000000E+00
 
  10
   s   3
  1.873113696E+01  3.349460434E-02
  2.825394365E+00  2.347269535E-01
  6.401216923E-01  8.137573261E-01
   s   1
  1.612777588E-01  1.000000000E+00
 
[MO]
Sym=     1ag 
Ene=   -11.2660
Spin= Alpha
Occup=    2.00000
   1         0.49695522
   2         0.01355905
   3        -0.00437295
   4         0.00000363
   5        -0.00001353
   6         0.00000000
   7         0.00023883
   8         0.00033709
   9         0.00000000
  10        -0.00074272
  11        -0.00124925
  12        -0.00124204
  13         0.00003956
  14         0.00000000
  15         0.00000000
  16         0.49695522
  17         0.01355905
  18        -0.00437295
  19        -0.00000363
  20        -0.00001353
  21         0.00000000
  22        -0.00023883
  23         0.00033709
  24         0.00000000
  25        -0.00074272
  26        -0.00124925
  27        -0.00124204
  28        -0.00003956
  29         0.00000000
  30         0.00000000
  31         0.49695522
  32         0.01355905
  33        -0.00437295
  34         0.00000363
  35         0.00001353
  36         0.00000000
  37         0.00023883
  38        -0.00033709
  39         0.00000000
  40        -0.00074272
  41        -0.00124925
  42        -0.00124204
  43        -0.00003956
  44         0.00000000
  45         0.00000000
  46         0.49695522
  47         0.01355905
  48        -0.00437295
  49        -0.00000363
  50         0.00001353
  51         0.00000000
  52        -0.00023883
  53        -0.00033709
  54         0.00000000
  55        -0.00074272
  56        -0.00124925
  57        -0.00124204
  58         0.00003956
  59         0.00000000
  60         0.00000000
  61         0.03913628
  62         0.00063768
  63         0.00332031
  64         0.00000000
  65        -0.00015893
  66         0.00000000
  67         0.00000000
  68         0.00070623
  69         0.00000000
  70        -0.00026470
  71        -0.00030126
  72        -0.00022173
  73         0.00000000
  74         0.00000000
  75         0.00000000
  76         0.03913628
  77         0.00063768
  78         0.00332031
  79         0.00000000
  80         0.00015893
  81         0.00000000
  82         0.00000000
  83        -0.00070623
  84         0.00000000
  85        -0.00026470
  86        -0.00030126
  87        -0.00022173
  88         0.00000000
  89         0.00000000
  90         0.00000000
  91        -0.00016895
  92         0.00101529
  93        -0.00016895
  94         0.00101529
  95        -0.00016895
  96         0.00101529
  97        -0.00016895
  98         0.00101529
Sym=     2ag 
Ene=   -11.2450
Spin= Alpha
Occup=    2.00000
   1        -0.02817519
   2        -0.00115093
   3         0.00390742
   4         0.00023807
   5         0.00008823
   6         0.00000000
   7        -0.00207484
   8        -0.00006481
   9         0.00000000
  10        -0.00016893
  11        -0.00015813
  12        -0.00005084
  13        -0.00016628
  14         0.00000000
  15         0.00000000
  16        -0.02817519
  17        -0.00115093
  18         0.00390742
  19        -0.00023807
  20         0.00008823
  21         0.00000000
  22         0.00207484
  23        -0.00006481
  24         0.00000000
  25        -0.00016893
  26        -0.00015813
  27        -0.00005084
  28         0.00016628
  29         0.00000000
  30         0.00000000
  31        -0.02817519
  32        -0.00115093
  33         0.00390742
  34         0.00023807
  35        -0.00008823
  36         0.00000000
  37        -0.00207484
  38         0.00006481
  39         0.00000000
  40        -0.00016893
  41        -0.00015813
  42        -0.00005084
  43         0.00016628
  44         0.00000000
  45         0.00000000
  46        -0.02817519
  47        -0.00115093
  48         0.00390742
  49        -0.00023807
  50        -0.00008823
  51         0.00000000
  52         0.00207484
  53         0.00006481
  54         0.00000000
  55        -0.00016893
  56        -0.00015813
  57        -0.00005084
  58        -0.00016628
  59         0.00000000
  60         0.00000000
  61         0.70299523
  62         0.01937983
  63        -0.01087683
  64         0.00000000
  65         0.00073068
  66         0.00000000
  67         0.00000000
  68        -0.00283603
  69         0.00000000
  70        -0.00059975
  71        -0.00159240
  72        -0.00162417
  73         0.00000000
  74         0.00000000
  75         0.00000000
  76         0.70299523
  77         0.01937983
  78        -0.01087683
  79         0.00000000
  80        -0.00073068
  81         0.00000000
  82         0.00000000
  83         0.00283603
  84         0.00000000
  85        -0.00059975
  86        -0.00159240
  87        -0.00162417
  88         0.00000000
  89         0.00000000
  90         0.00000000
  91         0.00000377
  92         0.00043287
  93         0.00000377
  94         0.00043287
  95         0.00000377
  96         0.00043287
  97         0.00000377
  98         0.00043287
Sym=     3ag 
Ene=    -1.1656
Spin= Alpha
Occup=    2.00000
   1        -0.09203956
   2         0.17602783
   3         0.11198950
   4        -0.05954289
   5         0.02600804
   6         0.00000000
   7        -0.00584396
   8         0.00673148
   9         0.00000000
  10         0.00864732
  11         0.00603369
  12        -0.00856737
  13         0.00107634
  14         0.00000000
  15         0.00000000
  16        -0.09203956
  17         0.17602783
  18         0.11198950
  19         0.05954289
  20         0.02600804
  21         0.00000000
  22         0.00584396
  23         0.00673148
  24         0.00000000
  25         0.00864732
  26         0.00603369
  27        -0.00856737
  28        -0.00107634
  29         0.00000000
  30         0.00000000
  31        -0.09203956
  32         0.17602783
  33         0.11198950
  34        -0.05954289
  35        -0.02600804
  36         0.00000000
  37        -0.00584396
  38        -0.00673148
  39         0.00000000
  40         0.00864732
  41         0.00603369
  42        -0.00856737
  43        -0.00107634
  44         0.00000000
  45         0.00000000
  46        -0.09203956
  47         0.17602783
  48         0.11198950
  49         0.05954289
  50        -0.02600804
  51         0.00000000
  52         0.00584396
  53        -0.00673148
  54         0.00000000
  55         0.00864732
  56         0.00603369
  57        -0.00856737
  58         0.00107634
  59         0.00000000
  60         0.00000000
  61        -0.09555360
  62         0.18218685
  63         0.09986154
  64         0.00000000
  65         0.07404184
  66         0.00000000
  67         0.00000000
  68         0.00797120
  69         0.00000000
  70         0.00849541
  71        -0.00030501
  72        -0.00875100
  73         0.00000000
  74         0.00000000
  75         0.00000000
  76        -0.09555360
  77         0.18218685
  78         0.09986154
  79         0.00000000
  80        -0.07404184
  81         0.00000000
  82         0.00000000
  83        -0.00797120
  84         0.00000000
  85         0.00849541
  86        -0.00030501
  87        -0.00875100
  88         0.00000000
  89         0.00000000
  90         0.00000000
  91         0.03484536
  92         0.00305024
  93         0.03484536
  94         0.00305024
  95         0.03484536
  96         0.00305024
  97         0.03484536
  98         0.00305024
Sym=     4ag 
Ene=    -0.7992
Spin= Alpha
Occup=    2.00000
   1        -0.04329627
   2         0.08693117
   3         0.08224430
   4         0.19294182
   5         0.07190225
   6         0.00000000
   7         0.07372804
   8         0.01915171
   9         0.00000000
  10         0.00268239
  11         0.00741165
  12        -0.00332015
  13        -0.00731782
  14         0.00000000
  15         0.00000000
  16        -0.04329627
  17         0.08693117
  18         0.08224430
  19        -0.19294182
  20         0.07190225
  21         0.00000000
  22        -0.07372804
  23         0.01915171
  24         0.00000000
  25         0.00268239
  26         0.00741165
  27        -0.00332015
  28         0.00731782
  29         0.00000000
  30         0.00000000
  31        -0.04329627
  32         0.08693117
  33         0.08224430
  34         0.19294182
  35        -0.07190225
  36         0.00000000
  37         0.07372804
  38        -0.01915171
  39         0.00000000
  40         0.00268239
  41         0.00741165
  42        -0.00332015
  43         0.00731782
  44         0.00000000
  45         0.00000000
  46        -0.04329627
  47         0.08693117
  48         0.08224430
  49        -0.19294182
  50        -0.07190225
  51         0.00000000
  52        -0.07372804
  53        -0.01915171
  54         0.00000000
  55         0.00268239
  56         0.00741165
  57        -0.00332015
  58        -0.00731782
  59         0.00000000
  60         0.00000000
  61         0.08310505
  62        -0.16731107
  63        -0.09978130
  64         0.00000000
  65        -0.04014432
  66         0.00000000
  67         0.00000000
  68         0.01221930
  69         0.00000000
  70        -0.00464122
  71         0.00093201
  72         0.00532528
  73         0.00000000
  74         0.00000000
  75         0.00000000
  76         0.08310505
  77        -0.16731107
  78        -0.09978130
  79         0.00000000
  80         0.04014432
  81         0.00000000
  82         0.00000000
  83        -0.01221930
  84         0.00000000
  85        -0.00464122
  86         0.00093201
  87         0.00532528
  88         0.00000000
  89         0.00000000
  90         0.00000000
  91         0.10991759
  92         0.04708746
  93         0.10991759
  94         0.04708746
  95         0.10991759
  96         0.04708746
  97         0.10991759
  98         0.04708746
Sym=     5ag 
Ene=    -0.6426
Spin= Alpha
Occup=    2.00000
   1         0.00867466
   2        -0.02163696
   3        -0.00282309
   4         0.07129200
   5        -0.23115095
   6         0.00000000
   7         0.03580067
   8        -0.09456509
   9         0.00000000
  10         0.00877891
  11        -0.00784851
  12         0.00029349
  13         0.00340358
  14         0.00000000
  15         0.00000000
  16         0.00867466
  17        -0.02163696
  18        -0.00282309
  19        -0.07129200
  20        -0.23115095
  21         0.00000000
  22        -0.03580067
  23        -0.09456509
  24         0.00000000
  25         0.00877891
  26        -0.00784851
  27         0.00029349
  28        -0.00340358
  29         0.00000000
  30         0.00000000
  31         0.00867466
  32        -0.02163696
  33        -0.00282309
  34         0.07129200
  35         0.23115095
  36         0.00000000
  37         0.03580067
  38         0.09456509
  39         0.00000000
  40         0.00877891
  41        -0.00784851
  42         0.00029349
  43        -0.00340358
  44         0.00000000
  45         0.00000000
  46         0.00867466
  47        -0.02163696
  48        -0.00282309
  49        -0.07129200
  50         0.23115095
  51         0.00000000
  52        -0.03580067
  53         0.09456509
  54         0.00000000
  55         0.00877891
  56        -0.00784851
  57         0.00029349
  58         0.00340358
  59         0.00000000
  60         0.00000000
  61        -0.06120558
  62         0.12507716
  63         0.15068403
  64         0.00000000
  65        -0.12720247
  66         0.00000000
  67         0.00000000
  68        -0.05962005
  69         0.00000000
  70         0.01411976
  71        -0.01662356
  72        -0.00041235
  73         0.00000000
  74         0.00000000
  75         0.00000000
  76        -0.06120558
  77         0.12507716
  78         0.15068403
  79         0.00000000
  80         0.12720247
  81         0.00000000
  82         0.00000000
  83         0.05962005
  84         0.00000000
  85         0.01411976
  86        -0.01662356
  87        -0.00041235
  88         0.00000000
  89         0.00000000
  90         0.00000000
  91         0.08323781
  92         0.05207105
  93         0.08323781
  94         0.05207105
  95         0.08323781
  96         0.05207105
  97         0.08323781
  98         0.05207105
Sym=     6ag 
Ene=    -0.0093
Spin= Alpha
Occup=    0.00000
   1         0.00566292
   2         0.00715435
   3        -0.15533297
   4        -0.05766697
   5        -0.16865809
   6         0.00000000
   7        -0.01379265
   8        -0.10456259
   9         0.00000000
  10         0.02006472
  11        -0.01806765
  12         0.00065030
  13        -0.01704504
  14         0.00000000
  15         0.00000000
  16         0.00566292
  17         0.00715435
  18        -0.15533297
  19         0.05766697
  20        -0.16865809
  21         0.00000000
  22         0.01379265
  23        -0.10456259
  24         0.00000000
  25         0.02006472
  26        -0.01806765
  27         0.00065030
  28         0.01704504
  29         0.00000000
  30         0.00000000
  31         0.00566292
  32         0.00715435
  33        -0.15533297
  34        -0.05766697
  35         0.16865809
  36         0.00000000
  37        -0.01379265
  38         0.10456259
  39         0.00000000
  40         0.02006472
  41        -0.01806765
  42         0.00065030
  43         0.01704504
  44         0.00000000
  45         0.00000000
  46         0.00566292
  47         0.00715435
  48        -0.15533297
  49         0.05766697
  50         0.16865809
  51         0.00000000
  52         0.01379265
  53         0.10456259
  54         0.00000000
  55         0.02006472
  56        -0.01806765
  57         0.00065030
  58        -0.01704504
  59         0.00000000
  60         0.00000000
  61         0.03497139
  62        -0.04560635
  63        -0.18561049
  64         0.00000000
  65         0.31646016
  66         0.00000000
  67         0.00000000
  68         0.39226624
  69         0.00000000
  70         0.01042297
  71         0.00396900
  72        -0.00426437
  73         0.00000000
  74         0.00000000
  75         0.00000000
  76         0.03497139
  77        -0.04560635
  78        -0.18561049
  79         0.00000000
  80        -0.31646016
  81         0.00000000
  82         0.00000000
  83        -0.39226624
  84         0.00000000
  85         0.01042297
  86         0.00396900
  87        -0.00426437
  88         0.00000000
  89         0.00000000
  90         0.00000000
  91         0.08186051
  92         0.18667125
  93         0.08186051
  94         0.18667125
  95         0.08186051
  96         0.18667125
  97         0.08186051
  98         0.18667125
Sym=     7ag 
Ene=     0.2558
Spin= Alpha
Occup=    0.00000
   1         0.05238011
   2        -0.08535033
   3        -0.67600986
   4        -0.07788792
   5         0.11170359
   6         0.00000000
   7        -0.47791402
   8         0.33335091
   9         0.00000000
  10         0.00849201
  11        -0.00247584
  12        -0.00065114
  13        -0.00045562
  14         0.00000000
  15         0.00000000
  16         0.05238011
  17        -0.08535033
  18        -0.67600986
  19         0.07788792
  20         0.11170359
  21         0.00000000
  22         0.47791402
  23         0.33335091
  24         0.00000000
  25         0.00849201
  26        -0.00247584
  27        -0.00065114
  28         0.00045562
  29         0.00000000
  30         0.00000000
  31         0.05238011
  32        -0.08535033
  33        -0.67600986
  34        -0.07788792
  35        -0.11170359
  36         0.00000000
  37        -0.47791402
  38        -0.33335091
  39         0.00000000
  40         0.00849201
  41        -0.00247584
  42        -0.00065114
  43         0.00045562
  44         0.00000000
  45         0.00000000
  46         0.05238011
  47        -0.08535033
  48        -0.67600986
  49         0.07788792
  50        -0.11170359
  51         0.00000000
  52         0.47791402
  53        -0.33335091
  54         0.00000000
  55         0.00849201
  56        -0.00247584
  57        -0.00065114
  58        -0.00045562
  59         0.00000000
  60         0.00000000
  61        -0.01694326
  62         0.03628643
  63        -0.06983751
  64         0.00000000
  65        -0.01718570
  66         0.00000000
  67         0.00000000
  68        -0.40115046
  69         0.00000000
  70        -0.02203466
  71         0.01114541
  72         0.00391518
  73         0.00000000
  74         0.00000000
  75         0.00000000
  76        -0.01694326
  77         0.03628643
  78        -0.06983751
  79         0.00000000
  80         0.01718570
  81         0.00000000
  82         0.00000000
  83         0.40115046
  84         0.00000000
  85        -0.02203466
  86         0.01114541
  87         0.00391518
  88         0.00000000
  89         0.00000000
  90         0.00000000
  91         0.00535878
  92         1.06009229
  93         0.00535878
  94         1.06009229
  95         0.00535878
  96         1.06009229
  97         0.00535878
  98         1.06009229
Sym=     8ag 
Ene=     0.4454
Spin= Alpha
Occup=    0.00000
   1         0.04302264
   2         0.01257798
   3        -1.44698876
   4         0.03814652
   5        -0.02964833
   6         0.00000000
   7         1.26616234
   8         0.38619913
   9         0.00000000
  10         0.00813831
  11        -0.01500210
  12         0.00668206
  13         0.01477240
  14         0.00000000
  15         0.00000000
  16         0.04302264
  17         0.01257798
  18        -1.44698876
  19        -0.03814652
  20        -0.02964833
  21         0.00000000
  22        -1.26616234
  23         0.38619913
  24         0.00000000
  25         0.00813831
  26        -0.01500210
  27         0.00668206
  28        -0.01477240
  29         0.00000000
  30         0.00000000
  31         0.04302264
  32         0.01257798
  33        -1.44698876
  34         0.03814652
  35         0.02964833
  36         0.00000000
  37         1.26616234
  38        -0.38619913
  39         0.00000000
  40         0.00813831
  41        -0.01500210
  42         0.00668206
  43        -0.01477240
  44         0.00000000
  45         0.00000000
  46         0.04302264
  47         0.01257798
  48        -1.44698876
  49        -0.03814652
  50         0.02964833
  51         0.00000000
  52        -1.26616234
  53        -0.38619913
  54         0.00000000
  55         0.00813831
  56        -0.01500210
  57         0.00668206
  58         0.01477240
  59         0.00000000
  60         0.00000000
  61        -0.10688443
  62         0.11610075
  63         3.41897997
  64         0.00000000
  65         0.02090469
  66         0.00000000
  67         0.00000000
  68         1.22909833
  69         0.00000000
  70         0.02627175
  71        -0.00063071
  72        -0.00292749
  73         0.00000000
  74         0.00000000
  75         0.00000000
  76        -0.10688443
  77         0.11610075
  78         3.41897997
  79         0.00000000
  80        -0.02090469
  81         0.00000000
  82         0.00000000
  83        -1.22909833
  84         0.00000000
  85         0.02627175
  86        -0.00063071
  87        -0.00292749
  88         0.00000000
  89         0.00000000
  90         0.00000000
  91         0.00516637
  92        -0.42477946
  93         0.00516637
  94        -0.42477946
  95         0.00516637
  96        -0.42477946
  97         0.00516637
  98        -0.42477946
Sym=     9ag 
Ene=     0.7166
Spin= Alpha
Occup=    0.00000
   1         0.01057411
   2        -0.45000856
   3         0.28999011
   4         0.25112400
   5        -0.05008578
   6         0.00000000
   7        -0.01240565
   8         0.02893900
   9         0.00000000
  10         0.00450123
  11        -0.07758179
  12        -0.00916881
  13        -0.03230874
  14         0.00000000
  15         0.00000000
  16         0.01057411
  17        -0.45000856
  18         0.28999011
  19        -0.25112400
  20        -0.05008578
  21         0.00000000
  22         0.01240565
  23         0.02893900
  24         0.00000000
  25         0.00450123
  26        -0.07758179
  27        -0.00916881
  28         0.03230874
  29         0.00000000
  30         0.00000000
  31         0.01057411
  32        -0.45000856
  33         0.28999011
  34         0.25112400
  35         0.05008578
  36         0.00000000
  37        -0.01240565
  38        -0.02893900
  39         0.00000000
  40         0.00450123
  41        -0.07758179
  42        -0.00916881
  43         0.03230874
  44         0.00000000
  45         0.00000000
  46         0.01057411
  47        -0.45000856
  48         0.28999011
  49        -0.25112400
  50         0.05008578
  51         0.00000000
  52         0.01240565
  53        -0.02893900
  54         0.00000000
  55         0.00450123
  56        -0.07758179
  57        -0.00916881
  58        -0.03230874
  59         0.00000000
  60         0.00000000
  61        -0.03101438
  62        -0.46249720
  63         0.78846530
  64         0.00000000
  65         0.01348800
  66         0.00000000
  67         0.00000000
  68         0.18163844
  69         0.00000000
  70        -0.11643235
  71        -0.01287265
  72         0.01037898
  73         0.00000000
  74         0.00000000
  75         0.00000000
  76        -0.03101438
  77        -0.46249720
  78         0.78846530
  79         0.00000000
  80        -0.01348800
  81         0.00000000
  82         0.00000000
  83        -0.18163844
  84         0.00000000
  85        -0.11643235
  86        -0.01287265
  87         0.01037898
  88         0.00000000
  89         0.00000000
  90         0.00000000
  91         0.11163437
  92        -0.28367454
  93         0.11163437
  94        -0.28367454
  95         0.11163437
  96        -0.28367454
  97         0.11163437
  98        -0.28367454
Sym=    10ag 
Ene=     0.8114
Spin= Alpha
Occup=    0.00000
   1         0.03537214
   2         0.27996637
   3        -0.55082988
   4         0.19239181
   5         0.20681769
   6         0.00000000
   7        -0.29293299
   8        -0.17425935
   9         0.00000000
  10         0.08100147
  11         0.06565850
  12        -0.03586023
  13        -0.02579214
  14         0.00000000
  15         0.00000000
  16         0.03537214
  17         0.27996637
  18        -0.55082988
  19        -0.19239181
  20         0.20681769
  21         0.00000000
  22         0.29293299
  23        -0.17425935
  24         0.00000000
  25         0.08100147
  26         0.06565850
  27        -0.03586023
  28         0.02579214
  29         0.00000000
  30         0.00000000
  31         0.03537214
  32         0.27996637
  33        -0.55082988
  34         0.19239181
  35        -0.20681769
  36         0.00000000
  37        -0.29293299
  38         0.17425935
  39         0.00000000
  40         0.08100147
  41         0.06565850
  42        -0.03586023
  43         0.02579214
  44         0.00000000
  45         0.00000000
  46         0.03537214
  47         0.27996637
  48        -0.55082988
  49        -0.19239181
  50        -0.20681769
  51         0.00000000
  52         0.29293299
  53         0.17425935
  54         0.00000000
  55         0.08100147
  56         0.06565850
  57        -0.03586023
  58        -0.02579214
  59         0.00000000
  60         0.00000000
  61        -0.04226913
  62         0.27923701
  63        -0.17188321
  64         0.00000000
  65        -0.15943206
  66         0.00000000
  67         0.00000000
  68         0.26344285
  69         0.00000000
  70        -0.05201438
  71         0.05644419
  72         0.01782542
  73         0.00000000
  74         0.00000000
  75         0.00000000
  76        -0.04226913
  77         0.27923701
  78        -0.17188321
  79         0.00000000
  80         0.15943206
  81         0.00000000
  82         0.00000000
  83        -0.26344285
  84         0.00000000
  85        -0.05201438
  86         0.05644419
  87         0.01782542
  88         0.00000000
  89         0.00000000
  90         0.00000000
  91         0.34483140
  92         0.08213843
  93         0.34483140
  94         0.08213843
  95         0.34483140
  96         0.08213843
  97         0.34483140
  98         0.08213843
Sym=    11ag 
Ene=     0.8488
Spin= Alpha
Occup=    0.00000
   1        -0.00943763
   2        -0.11382734
   3        -0.03094099
   4        -0.09419999
   5         0.02734621
   6         0.00000000
   7         0.34123423
   8        -0.32722758
   9         0.00000000
  10        -0.10082164
  11         0.01764406
  12         0.03015167
  13        -0.02167651
  14         0.00000000
  15         0.00000000
  16        -0.00943763
  17        -0.11382734
  18        -0.03094099
  19         0.09419999
  20         0.02734621
  21         0.00000000
  22        -0.34123423