[Molden Format]
[N_Atoms]
                   10
[Atoms] (AU)
C1          1      6          -4.20965701      2.01451165      0.00000000
C1          2      6           4.20965701      2.01451165      0.00000000
C2          3      6          -2.84149614      0.18021408      0.00000000
C2          4      6           2.84149614      0.18021408      0.00000000
H3          5      1           5.36731519      3.63982198      0.00000000
H3          6      1          -5.36731519      3.63982198      0.00000000
C4          7      6          -1.29119996     -2.04295935      0.00000000
C4          8      6           1.29119996     -2.04295935      0.00000000
H5          9      1          -2.25424231     -3.83103908      0.00000000
H5         10      1           2.25424231     -3.83103908      0.00000000
[Charge] (Mulliken)
 -0.92151305695453622     
 -0.92151305695453622     
  0.23835616308181251     
  0.23835616308181251     
  0.57707085330738317     
  0.57707085330738317     
 -0.33364468262798752     
 -0.33364468262798752     
  0.43973072319309292     
  0.43973072319309292     
[GTO] (AU)
   1
   s   6
  3.047524880E+03  1.834737132E-03
  4.573695180E+02  1.403732281E-02
  1.039486850E+02  6.884262227E-02
  2.921015530E+01  2.321844432E-01
  9.286662960E+00  4.679413484E-01
  3.163926960E+00  3.623119853E-01
   s   3
  7.868272350E+00 -1.193324198E-01
  1.881288540E+00 -1.608541517E-01
  5.442492580E-01  1.143456438E+00
   s   1
  1.687144782E-01  1.000000000E+00
   p   3
  7.868272350E+00  6.899906659E-02
  1.881288540E+00  3.164239610E-01
  5.442492580E-01  7.443082909E-01
   p   1
  1.687144782E-01  1.000000000E+00
   d   1
  8.000000000E-01  1.000000000E+00
 
   2
   s   6
  3.047524880E+03  1.834737132E-03
  4.573695180E+02  1.403732281E-02
  1.039486850E+02  6.884262227E-02
  2.921015530E+01  2.321844432E-01
  9.286662960E+00  4.679413484E-01
  3.163926960E+00  3.623119853E-01
   s   3
  7.868272350E+00 -1.193324198E-01
  1.881288540E+00 -1.608541517E-01
  5.442492580E-01  1.143456438E+00
   s   1
  1.687144782E-01  1.000000000E+00
   p   3
  7.868272350E+00  6.899906659E-02
  1.881288540E+00  3.164239610E-01
  5.442492580E-01  7.443082909E-01
   p   1
  1.687144782E-01  1.000000000E+00
   d   1
  8.000000000E-01  1.000000000E+00
 
   3
   s   6
  3.047524880E+03  1.834737132E-03
  4.573695180E+02  1.403732281E-02
  1.039486850E+02  6.884262227E-02
  2.921015530E+01  2.321844432E-01
  9.286662960E+00  4.679413484E-01
  3.163926960E+00  3.623119853E-01
   s   3
  7.868272350E+00 -1.193324198E-01
  1.881288540E+00 -1.608541517E-01
  5.442492580E-01  1.143456438E+00
   s   1
  1.687144782E-01  1.000000000E+00
   p   3
  7.868272350E+00  6.899906659E-02
  1.881288540E+00  3.164239610E-01
  5.442492580E-01  7.443082909E-01
   p   1
  1.687144782E-01  1.000000000E+00
   d   1
  8.000000000E-01  1.000000000E+00
 
   4
   s   6
  3.047524880E+03  1.834737132E-03
  4.573695180E+02  1.403732281E-02
  1.039486850E+02  6.884262227E-02
  2.921015530E+01  2.321844432E-01
  9.286662960E+00  4.679413484E-01
  3.163926960E+00  3.623119853E-01
   s   3
  7.868272350E+00 -1.193324198E-01
  1.881288540E+00 -1.608541517E-01
  5.442492580E-01  1.143456438E+00
   s   1
  1.687144782E-01  1.000000000E+00
   p   3
  7.868272350E+00  6.899906659E-02
  1.881288540E+00  3.164239610E-01
  5.442492580E-01  7.443082909E-01
   p   1
  1.687144782E-01  1.000000000E+00
   d   1
  8.000000000E-01  1.000000000E+00
 
   5
   s   3
  1.873113696E+01  3.349460434E-02
  2.825394365E+00  2.347269535E-01
  6.401216923E-01  8.137573261E-01
   s   1
  1.612777588E-01  1.000000000E+00
 
   6
   s   3
  1.873113696E+01  3.349460434E-02
  2.825394365E+00  2.347269535E-01
  6.401216923E-01  8.137573261E-01
   s   1
  1.612777588E-01  1.000000000E+00
 
   7
   s   6
  3.047524880E+03  1.834737132E-03
  4.573695180E+02  1.403732281E-02
  1.039486850E+02  6.884262227E-02
  2.921015530E+01  2.321844432E-01
  9.286662960E+00  4.679413484E-01
  3.163926960E+00  3.623119853E-01
   s   3
  7.868272350E+00 -1.193324198E-01
  1.881288540E+00 -1.608541517E-01
  5.442492580E-01  1.143456438E+00
   s   1
  1.687144782E-01  1.000000000E+00
   p   3
  7.868272350E+00  6.899906659E-02
  1.881288540E+00  3.164239610E-01
  5.442492580E-01  7.443082909E-01
   p   1
  1.687144782E-01  1.000000000E+00
   d   1
  8.000000000E-01  1.000000000E+00
 
   8
   s   6
  3.047524880E+03  1.834737132E-03
  4.573695180E+02  1.403732281E-02
  1.039486850E+02  6.884262227E-02
  2.921015530E+01  2.321844432E-01
  9.286662960E+00  4.679413484E-01
  3.163926960E+00  3.623119853E-01
   s   3
  7.868272350E+00 -1.193324198E-01
  1.881288540E+00 -1.608541517E-01
  5.442492580E-01  1.143456438E+00
   s   1
  1.687144782E-01  1.000000000E+00
   p   3
  7.868272350E+00  6.899906659E-02
  1.881288540E+00  3.164239610E-01
  5.442492580E-01  7.443082909E-01
   p   1
  1.687144782E-01  1.000000000E+00
   d   1
  8.000000000E-01  1.000000000E+00
 
   9
   s   3
  1.873113696E+01  3.349460434E-02
  2.825394365E+00  2.347269535E-01
  6.401216923E-01  8.137573261E-01
   s   1
  1.612777588E-01  1.000000000E+00
 
  10
   s   3
  1.873113696E+01  3.349460434E-02
  2.825394365E+00  2.347269535E-01
  6.401216923E-01  8.137573261E-01
   s   1
  1.612777588E-01  1.000000000E+00
 
[MO]
Sym=     1a1 
Ene=   -11.2550
Spin= Alpha
Occup=    2.00000
   1         0.00016893
   2         0.00022897
   3        -0.00263258
   4         0.00010820
   5        -0.00009202
   6         0.00000000
   7        -0.00122015
   8         0.00160336
   9         0.00000000
  10         0.00006695
  11         0.00006776
  12         0.00001029
  13        -0.00006416
  14         0.00000000
  15         0.00000000
  16         0.00016893
  17         0.00022897
  18        -0.00263258
  19        -0.00010820
  20        -0.00009202
  21         0.00000000
  22         0.00122015
  23         0.00160336
  24         0.00000000
  25         0.00006695
  26         0.00006776
  27         0.00001029
  28         0.00006416
  29         0.00000000
  30         0.00000000
  31         0.00779457
  32         0.00010264
  33         0.00461374
  34        -0.00003120
  35         0.00017082
  36         0.00000000
  37        -0.00065647
  38         0.00092841
  39         0.00000000
  40        -0.00026298
  41        -0.00054518
  42        -0.00015699
  43         0.00020211
  44         0.00000000
  45         0.00000000
  46         0.00779457
  47         0.00010264
  48         0.00461374
  49         0.00003120
  50         0.00017082
  51         0.00000000
  52         0.00065647
  53         0.00092841
  54         0.00000000
  55        -0.00026298
  56        -0.00054518
  57        -0.00015699
  58        -0.00020211
  59         0.00000000
  60         0.00000000
  61        -0.00010886
  62        -0.00061467
  63        -0.00010886
  64        -0.00061467
  65         0.70362719
  66         0.01973676
  67        -0.00510463
  68         0.00009865
  69         0.00037657
  70         0.00000000
  71         0.00090334
  72        -0.00013049
  73         0.00000000
  74        -0.00136331
  75        -0.00151929
  76        -0.00180195
  77        -0.00007956
  78         0.00000000
  79         0.00000000
  80         0.70362719
  81         0.01973676
  82        -0.00510463
  83        -0.00009865
  84         0.00037657
  85         0.00000000
  86        -0.00090334
  87        -0.00013049
  88         0.00000000
  89        -0.00136331
  90        -0.00151929
  91        -0.00180195
  92         0.00007956
  93         0.00000000
  94         0.00000000
  95        -0.00014191
  96         0.00130324
  97        -0.00014191
  98         0.00130324
Sym=     2a1 
Ene=   -11.2190
Spin= Alpha
Occup=    2.00000
   1         0.21867746
   2         0.00531758
   3         0.00079447
   4        -0.00027621
   5         0.00035148
   6         0.00000000
   7         0.00064794
   8        -0.00104756
   9         0.00000000
  10        -0.00065012
  11        -0.00046308
  12        -0.00079830
  13        -0.00025424
  14         0.00000000
  15         0.00000000
  16         0.21867746
  17         0.00531758
  18         0.00079447
  19         0.00027621
  20         0.00035148
  21         0.00000000
  22        -0.00064794
  23        -0.00104756
  24         0.00000000
  25        -0.00065012
  26        -0.00046308
  27        -0.00079830
  28         0.00025424
  29         0.00000000
  30         0.00000000
  31         0.66869256
  32         0.01823114
  33        -0.00562165
  34        -0.00001046
  35        -0.00016347
  36         0.00000000
  37         0.00012285
  38         0.00027012
  39         0.00000000
  40        -0.00145047
  41        -0.00088039
  42        -0.00209471
  43        -0.00099127
  44         0.00000000
  45         0.00000000
  46         0.66869256
  47         0.01823114
  48        -0.00562165
  49         0.00001046
  50        -0.00016347
  51         0.00000000
  52        -0.00012285
  53         0.00027012
  54         0.00000000
  55        -0.00145047
  56        -0.00088039
  57        -0.00209471
  58         0.00099127
  59         0.00000000
  60         0.00000000
  61        -0.00025276
  62         0.00061986
  63        -0.00025276
  64         0.00061986
  65        -0.00778177
  66        -0.00017838
  67         0.00173893
  68         0.00038324
  69        -0.00047900
  70         0.00000000
  71        -0.00042103
  72         0.00055077
  73         0.00000000
  74        -0.00030776
  75        -0.00060439
  76        -0.00016612
  77         0.00037053
  78         0.00000000
  79         0.00000000
  80        -0.00778177
  81        -0.00017838
  82         0.00173893
  83        -0.00038324
  84        -0.00047900
  85         0.00000000
  86         0.00042103
  87         0.00055077
  88         0.00000000
  89        -0.00030776
  90        -0.00060439
  91        -0.00016612
  92        -0.00037053
  93         0.00000000
  94         0.00000000
  95        -0.00008537
  96         0.00008706
  97        -0.00008537
  98         0.00008706
Sym=     3a1 
Ene=   -11.2130
Spin= Alpha
Occup=    2.00000
   1        -0.66905217
   2        -0.01878410
   3         0.00983223
   4        -0.00022545
   5         0.00019213
   6         0.00000000
   7         0.00177828
   8        -0.00249519
   9         0.00000000
  10         0.00149647
  11         0.00112951
  12         0.00194132
  13         0.00069006
  14         0.00000000
  15         0.00000000
  16        -0.66905217
  17        -0.01878410
  18         0.00983223
  19         0.00022545
  20         0.00019213
  21         0.00000000
  22        -0.00177828
  23        -0.00249519
  24         0.00000000
  25         0.00149647
  26         0.00112951
  27         0.00194132
  28        -0.00069006
  29         0.00000000
  30         0.00000000
  31         0.21959063
  32         0.00680185
  33        -0.00789088
  34        -0.00029742
  35         0.00025518
  36         0.00000000
  37         0.00202374
  38        -0.00261747
  39         0.00000000
  40        -0.00039590
  41        -0.00031121
  42        -0.00049589
  43        -0.00015081
  44         0.00000000
  45         0.00000000
  46         0.21959063
  47         0.00680185
  48        -0.00789088
  49         0.00029742
  50         0.00025518
  51         0.00000000
  52        -0.00202374
  53        -0.00261747
  54         0.00000000
  55        -0.00039590
  56        -0.00031121
  57        -0.00049589
  58         0.00015081
  59         0.00000000
  60         0.00000000
  61         0.00061058
  62        -0.00051795
  63         0.00061058
  64        -0.00051795
  65        -0.00242266
  66        -0.00010014
  67        -0.00001074
  68         0.00010136
  69        -0.00009340
  70         0.00000000
  71        -0.00007373
  72         0.00008534
  73         0.00000000
  74        -0.00006228
  75        -0.00011605
  76        -0.00006251
  77         0.00004580
  78         0.00000000
  79         0.00000000
  80        -0.00242266
  81        -0.00010014
  82        -0.00001074
  83        -0.00010136
  84        -0.00009340
  85         0.00000000
  86         0.00007373
  87         0.00008534
  88         0.00000000
  89        -0.00006228
  90        -0.00011605
  91        -0.00006251
  92        -0.00004580
  93         0.00000000
  94         0.00000000
  95        -0.00004835
  96         0.00004031
  97        -0.00004835
  98         0.00004031
Sym=     4a1 
Ene=    -1.0386
Spin= Alpha
Occup=    2.00000
   1        -0.09547451
   2         0.17352358
   3         0.16386128
   4         0.05601345
   5        -0.07055049
   6         0.00000000
   7         0.01366248
   8        -0.01232674
   9         0.00000000
  10         0.00079348
  11         0.00721475
  12        -0.00643111
  13        -0.01126270
  14         0.00000000
  15         0.00000000
  16        -0.09547451
  17         0.17352358
  18         0.16386128
  19        -0.05601345
  20        -0.07055049
  21         0.00000000
  22        -0.01366248
  23        -0.01232674
  24         0.00000000
  25         0.00079348
  26         0.00721475
  27        -0.00643111
  28         0.01126270
  29         0.00000000
  30         0.00000000
  31        -0.12628763
  32         0.23640847
  33         0.15228044
  34        -0.02389734
  35         0.02417712
  36         0.00000000
  37         0.02667373
  38        -0.03647264
  39         0.00000000
  40        -0.00010158
  41         0.01009351
  42        -0.00836366
  43        -0.01371195
  44         0.00000000
  45         0.00000000
  46        -0.12628763
  47         0.23640847
  48         0.15228044
  49         0.02389734
  50         0.02417712
  51         0.00000000
  52        -0.02667373
  53        -0.03647264
  54         0.00000000
  55        -0.00010158
  56         0.01009351
  57        -0.00836366
  58         0.01371195
  59         0.00000000
  60         0.00000000
  61         0.03750643
  62         0.00477705
  63         0.03750643
  64         0.00477705
  65        -0.05701453
  66         0.11025193
  67         0.04145055
  68        -0.08166450
  69         0.04404816
  70         0.00000000
  71        -0.02551646
  72        -0.00771835
  73         0.00000000
  74         0.00323663
  75         0.00928177
  76        -0.00512012
  77        -0.00358739
  78         0.00000000
  79         0.00000000
  80        -0.05701453
  81         0.11025193
  82         0.04145055
  83         0.08166450
  84         0.04404816
  85         0.00000000
  86         0.02551646
  87        -0.00771835
  88         0.00000000
  89         0.00323663
  90         0.00928177
  91        -0.00512012
  92         0.00358739
  93         0.00000000
  94         0.00000000
  95         0.04340910
  96         0.01388628
  97         0.04340910
  98         0.01388628
Sym=     5a1 
Ene=    -0.9009
Spin= Alpha
Occup=    2.00000
   1         0.09153809
   2        -0.17173524
   3        -0.14073055
   4        -0.02379789
   5         0.03708645
   6         0.00000000
   7         0.01456447
   8        -0.01247534
   9         0.00000000
  10        -0.00251141
  11        -0.00887113
  12         0.00719640
  13         0.01442332
  14         0.00000000
  15         0.00000000
  16         0.09153809
  17        -0.17173524
  18        -0.14073055
  19         0.02379789
  20         0.03708645
  21         0.00000000
  22        -0.01456447
  23        -0.01247534
  24         0.00000000
  25        -0.00251141
  26        -0.00887113
  27         0.00719640
  28        -0.01442332
  29         0.00000000
  30         0.00000000
  31         0.00089954
  32         0.00929994
  33        -0.01479349
  34         0.11474222
  35        -0.17950083
  36         0.00000000
  37         0.02168348
  38        -0.02273873
  39         0.00000000
  40        -0.00018490
  41         0.00966949
  42        -0.00071141
  43        -0.00466394
  44         0.00000000
  45         0.00000000
  46         0.00089954
  47         0.00929994
  48        -0.01479349
  49        -0.11474222
  50        -0.17950083
  51         0.00000000
  52        -0.02168348
  53        -0.02273873
  54         0.00000000
  55        -0.00018490
  56         0.00966949
  57        -0.00071141
  58         0.00466394
  59         0.00000000
  60         0.00000000
  61        -0.05851009
  62        -0.00806740
  63        -0.05851009
  64        -0.00806740
  65        -0.09555218
  66         0.17974423
  67         0.16130554
  68        -0.13492175
  69        -0.00540873
  70         0.00000000
  71        -0.07094683
  72        -0.00454642
  73         0.00000000
  74         0.00411546
  75         0.01242515
  76        -0.00909164
  77         0.00124415
  78         0.00000000
  79         0.00000000
  80        -0.09555218
  81         0.17974423
  82         0.16130554
  83         0.13492175
  84        -0.00540873
  85         0.00000000
  86         0.07094683
  87        -0.00454642
  88         0.00000000
  89         0.00411546
  90         0.01242515
  91        -0.00909164
  92        -0.00124415
  93         0.00000000
  94         0.00000000
  95         0.11076006
  96         0.05286919
  97         0.11076006
  98         0.05286919
Sym=     6a1 
Ene=    -0.7244
Spin= Alpha
Occup=    2.00000
   1        -0.05265645
   2         0.10831957
   3         0.06132535
   4        -0.10025020
   5         0.15182947
   6         0.00000000
   7        -0.05554285
   8         0.08688536
   9         0.00000000
  10         0.00382797
  11         0.01312591
  12        -0.00385825
  13        -0.01339233
  14         0.00000000
  15         0.00000000
  16        -0.05265645
  17         0.10831957
  18         0.06132535
  19         0.10025020
  20         0.15182947
  21         0.00000000
  22         0.05554285
  23         0.08688536
  24         0.00000000
  25         0.00382797
  26         0.01312591
  27        -0.00385825
  28         0.01339233
  29         0.00000000
  30         0.00000000
  31         0.05952420
  32        -0.12014171
  33        -0.04627699
  34        -0.02251200
  35         0.01200886
  36         0.00000000
  37        -0.02676591
  38         0.05085849
  39         0.00000000
  40        -0.00533463
  41        -0.00361800
  42         0.00432672
  43         0.01125646
  44         0.00000000
  45         0.00000000
  46         0.05952420
  47        -0.12014171
  48        -0.04627699
  49         0.02251200
  50         0.01200886
  51         0.00000000
  52         0.02676591
  53         0.05085849
  54         0.00000000
  55        -0.00533463
  56        -0.00361800
  57         0.00432672
  58        -0.01125646
  59         0.00000000
  60         0.00000000
  61         0.15187068
  62         0.07283966
  63         0.15187068
  64         0.07283966
  65        -0.02831908
  66         0.05202974
  67         0.07828553
  68        -0.02948433
  69        -0.20670056
  70         0.00000000
  71        -0.03159066
  72        -0.07267674
  73         0.00000000
  74         0.00211917
  75         0.00718894
  76        -0.00232751
  77         0.00825899
  78         0.00000000
  79         0.00000000
  80        -0.02831908
  81         0.05202974
  82         0.07828553
  83         0.02948433
  84        -0.20670056
  85         0.00000000
  86         0.03159066
  87        -0.07267674
  88         0.00000000
  89         0.00211917
  90         0.00718894
  91        -0.00232751
  92        -0.00825899
  93         0.00000000
  94         0.00000000
  95         0.13475145
  96         0.08111757
  97         0.13475145
  98         0.08111757
Sym=     7a1 
Ene=    -0.6679
Spin= Alpha
Occup=    2.00000
   1        -0.00524641
   2         0.02019507
   3        -0.07228660
   4        -0.14791222
   5         0.19291930
   6         0.00000000
   7        -0.08891248
   8         0.11184449
   9         0.00000000
  10         0.00436105
  11         0.00773564
  12         0.00044280
  13        -0.00617035
  14         0.00000000
  15         0.00000000
  16        -0.00524641
  17         0.02019507
  18        -0.07228660
  19         0.14791222
  20         0.19291930
  21         0.00000000
  22         0.08891248
  23         0.11184449
  24         0.00000000
  25         0.00436105
  26         0.00773564
  27         0.00044280
  28         0.00617035
  29         0.00000000
  30         0.00000000
  31         0.00692655
  32        -0.00757953
  33         0.07173078
  34         0.13967005
  35        -0.17434498
  36         0.00000000
  37        -0.04105920
  38         0.04590481
  39         0.00000000
  40         0.00324466
  41        -0.00114525
  42         0.00155871
  43        -0.00065464
  44         0.00000000
  45         0.00000000
  46         0.00692655
  47        -0.00757953
  48         0.07173078
  49        -0.13967005
  50        -0.17434498
  51         0.00000000
  52         0.04105920
  53         0.04590481
  54         0.00000000
  55         0.00324466
  56        -0.00114525
  57         0.00155871
  58         0.00065464
  59         0.00000000
  60         0.00000000
  61         0.14349886
  62         0.07551594
  63         0.14349886
  64         0.07551594
  65        -0.00197890
  66         0.00190649
  67         0.05996918
  68        -0.01980140
  69         0.22901878
  70         0.00000000
  71        -0.01512167
  72         0.11734524
  73         0.00000000
  74        -0.00014249
  75        -0.00169502
  76        -0.00070854
  77        -0.00893485
  78         0.00000000
  79         0.00000000
  80        -0.00197890
  81         0.00190649
  82         0.05996918
  83         0.01980140
  84         0.22901878
  85         0.00000000
  86         0.01512167
  87         0.11734524
  88         0.00000000
  89        -0.00014249
  90        -0.00169502
  91        -0.00070854
  92         0.00893485
  93         0.00000000
  94         0.00000000
  95        -0.11022929
  96        -0.06446799
  97        -0.11022929
  98        -0.06446799
Sym=     8a1 
Ene=    -0.7717
Spin= Alpha
Occup=    1.98170
   1        -0.00518234
   2         0.00875496
   3         0.05119613
   4         0.00743683
   5        -0.00843248
   6         0.00000000
   7         0.01346137
   8        -0.02697573
   9         0.00000000
  10         0.00126337
  11        -0.00195113
  12        -0.00028013
  13        -0.00051221
  14         0.00000000
  15         0.00000000
  16        -0.00518234
  17         0.00875496
  18         0.05119613
  19        -0.00743683
  20        -0.00843248
  21         0.00000000
  22        -0.01346137
  23        -0.02697573
  24         0.00000000
  25         0.00126337
  26        -0.00195113
  27        -0.00028013
  28         0.00051221
  29         0.00000000
  30         0.00000000
  31         0.01815350
  32        -0.03659712
  33        -0.08517641
  34         0.00067689
  35         0.06376732
  36         0.00000000
  37         0.01074437
  38        -0.00895086
  39         0.00000000
  40         0.00744168
  41        -0.00422230
  42         0.00055451
  43        -0.00384916
  44         0.00000000
  45         0.00000000
  46         0.01815350
  47        -0.03659712
  48        -0.08517641
  49        -0.00067689
  50         0.06376732
  51         0.00000000
  52        -0.01074437
  53        -0.00895086
  54         0.00000000
  55         0.00744168
  56        -0.00422230
  57         0.00055451
  58         0.00384916
  59         0.00000000
  60         0.00000000
  61        -0.00191535
  62         0.00263850
  63        -0.00191535
  64         0.00263850
  65        -0.10387112
  66         0.21027077
  67         0.11519414
  68         0.38407760
  69         0.02247753
  70         0.00000000
  71         0.12331497
  72         0.00617273
  73         0.00000000
  74         0.01571503
  75        -0.01735980
  76        -0.00574953
  77         0.00366744
  78         0.00000000
  79         0.00000000
  80        -0.10387112
  81         0.21027077
  82         0.11519414
  83        -0.38407760
  84         0.02247753
  85         0.00000000
  86        -0.12331497
  87         0.00617273
  88         0.00000000
  89         0.01571503
  90        -0.01735980
  91        -0.00574953
  92        -0.00366744
  93         0.00000000
  94         0.00000000
  95        -0.04504018
  96        -0.06602770
  97        -0.04504018
  98        -0.06602770
Sym=     9a1 
Ene=    -0.0003
Spin= Alpha
Occup=    1.93909
   1         0.00316844
   2        -0.00829390
   3         0.01739855
   4         0.22852270
   5         0.17172340
   6         0.00000000
   7         0.16186518
   8         0.09766340
   9         0.00000000
  10         0.01259846
  11        -0.01263253
  12        -0.00039945
  13        -0.00445264
  14         0.00000000
  15         0.00000000
  16         0.00316844
  17        -0.00829390
  18         0.01739855
  19        -0.22852270
  20         0.17172340
  21         0.00000000
  22        -0.16186518
  23         0.09766340
  24         0.00000000
  25         0.01259846
  26        -0.01263253
  27        -0.00039945
  28         0.00445264
  29         0.00000000
  30         0.00000000
  31        -0.00122289
  32         0.00071557
  33         0.00117517
  34         0.23286228
  35         0.16672115
  36         0.00000000
  37         0.16488508
  38         0.08332946
  39         0.00000000
  40        -0.01350132
  41         0.01259262
  42        -0.00027605
  43         0.00565655
  44         0.00000000
  45         0.00000000
  46        -0.00122289
  47         0.00071557
  48         0.00117517
  49        -0.23286228
  50         0.16672115
  51         0.00000000
  52        -0.16488508
  53         0.08332946
  54         0.00000000
  55        -0.01350132
  56         0.01259262
  57        -0.00027605
  58        -0.00565655
  59         0.00000000
  60         0.00000000
  61         0.00087632
  62         0.00698682
  63         0.00087632
  64         0.00698682
  65         0.01285052
  66        -0.02928981
  67        -0.05395968
  68        -0.04583352
  69        -0.01199959
  70         0.00000000
  71        -0.01806274
  72        -0.01913435
  73         0.00000000
  74        -0.01031669
  75         0.01244968
  76        -0.00016585
  77         0.00542800
  78         0.00000000
  79         0.00000000
  80         0.01285052
  81        -0.02928981
  82        -0.05395968
  83         0.04583352
  84        -0.01199959
  85         0.00000000
  86         0.01806274
  87        -0.01913435
  88         0.00000000
  89        -0.01031669
  90         0.01244968
  91        -0.00016585
  92        -0.00542800
  93         0.00000000
  94         0.00000000
  95         0.03250809
  96         0.05545420
  97         0.03250809
  98         0.05545420
Sym=    10a1 
Ene=     0.0220
Spin= Alpha
Occup=    0.06283
   1        -0.00073917
   2         0.00491073
   3         0.03481016
   4        -0.36588012
   5        -0.26553427
   6         0.00000000
   7        -0.17554760
   8        -0.15277254
   9         0.00000000
  10         0.00695023
  11        -0.00681651
  12        -0.00083606
  13        -0.00075582
  14         0.00000000
  15         0.00000000
  16        -0.00073917
  17         0.00491073
  18         0.03481016
  19         0.36588012
  20        -0.26553427
  21         0.00000000
  22         0.17554760
  23        -0.15277254
  24         0.00000000
  25         0.00695023
  26        -0.00681651
  27        -0.00083606
  28         0.00075582
  29         0.00000000
  30         0.00000000
  31         0.00060911
  32         0.00410220
  33        -0.02974981
  34         0.36472559
  35         0.26149684
  36         0.00000000
  37         0.20360073
  38         0.11740616
  39         0.00000000
  40         0.00573784
  41        -0.00691866
  42         0.00038792
  43        -0.00073588
  44         0.00000000
  45         0.00000000
  46         0.00060911
  47         0.00410220
  48        -0.02974981
  49        -0.36472559
  50         0.26149684
  51         0.00000000
  52        -0.20360073
  53         0.11740616
  54         0.00000000
  55         0.00573784
  56        -0.00691866
  57         0.00038792
  58         0.00073588
  59         0.00000000
  60         0.00000000
  61        -0.00230273
  62         0.00319347
  63        -0.00230273
  64         0.00319347
  65         0.01013943
  66        -0.02786643
  67        -0.02157365
  68        -0.05727538
  69        -0.02600557
  70         0.00000000
  71        -0.03752944
  72        -0.02803539
  73         0.00000000
  74        -0.01302243
  75         0.01631881
  76         0.00007101
  77         0.00553550
  78         0.00000000
  79         0.00000000
  80         0.01013943
  81        -0.02786643
  82        -0.02157365
  83         0.05727538
  84        -0.02600557
  85         0.00000000
  86         0.03752944
  87        -0.02803539
  88         0.00000000
  89        -0.01302243
  90         0.01631881
  91         0.00007101
  92        -0.00553550
  93         0.00000000
  94         0.00000000
  95         0.04280251
  96         0.04682611
  97         0.04280251
  98         0.04682611
Sym=    11a1 
Ene=     0.2726
Spin= Alpha
Occup=    0.00000
   1        -0.06657821
   2         0.12880063
   3        -0.49594123
   4        -0.07372721
   5         0.10420157
   6         0.00000000
   7        -1.16842921
   8         1.55049307
   9         0.00000000
  10        -0.00220563
  11        -0.01329296
  12         0.00766400
  13         0.01610223
  14         0.00000000
  15         0.00000000
  16        -0.06657821
  17         0.12880063
  18        -0.49594123
  19         0.07372721
  20         0.10420157
  21         0.00000000
  22         1.16842921