   This run of MOLCAS is using the pymolcas driver

                             OPE
                             OPE          NMOL  CASOP  ENMOLC A   SO
                 OPE        NMOLC        AS  OP EN  MO LC     AS  OP
                OPENM       OL CA        SO  PE NM  OL CA     SOP EN
                OP EN      MO   LC       AS  OP ENMOL  CASO   PENMOL
                OP  EN     MO   LC       AS  OP EN     MO     LC ASO
               OP   E  NMOL  C  AS       OP  EN MO     LC     AS  OP
               OP  E   NMO   LC AS        OPEN  MO     LCASOP EN   M
               O  PEN   MO  LCA  SO
            OPE   NMO   L   CAS    OP
        OPENMOL  CASOP     ENMOL   CASOPE
     OPENMOLCA   SOPENMOLCASOPEN   MOLCASOPE
    OPENMOLCAS   OP           EN   MOL    CAS
    OPENMOLCAS       OP  ENM        O     LCA
    OPENMOLCAS    OPEN  MOLCASO     P  E  NMO
    OPENMOLCAS     OP               E  N  MOL
    OPENMOLCA   SO           PENM   O  L  CAS    OPEN    MO    LCAS
    OPENMOLCA   SOP           ENM   O  L  CAS   OP  EN  MOLC  AS   O
    OPENMOLCA   SOPE           NM      O  LCA   S      OP  EN MO
    OPENMOLC                AS         O  PEN   M      OL  CA  SOPE
    OPENMO        LCASOPE  NMOL        C  ASO   P      ENMOLC     AS
    OPE     NMO      LCA  SO     P     E   NM   OL  CA SO  PE N   MO
          OPENMOLCA            SOPE   NMO        LCAS  O    P  ENMO
     OPENMOLCASOPENMOLCASOPENMOLCASOPENMOLCA
        OPENMOLCASOPENMOLCASOPENMOLCASOPE
            OPENMOLCASOPENMOLCASOPENM
               OPENMOLCASOPENMOLCA        version: 24.02
                   OPENMOLCASO
                       OPE                tag: 428-g03afa2e9a

 OpenMolcas is free software; you can redistribute it and/or modify it
 under the terms of the GNU Lesser General Public License version 2.1.
 OpenMolcas is distributed in the hope that it will be useful, but it
 is provided "as is" and without any express or implied warranties.
 For more details see the full text of the license in the file
 LICENSE or in <http://www.gnu.org/licenses/>.

                 Copyright (C) The OpenMolcas Authors
           For the author list and the recommended citation,
                   consult the file CONTRIBUTORS.md

           *************************************************
           * pymolcas version py2.28                       *
           *   build c4a6d18ded8cb6cad61d2372a9abd97c      *
           *   (after the EMIL interpreter by V. Veryazov) *
           *************************************************

configuration info
------------------
Host name: DESKTOP-ET1S6F4 (Linux)
C Compiler ID: GNU
C flags: -std=gnu99 -fopenmp
Fortran Compiler ID: GNU
Fortran flags: -fno-aggressive-loop-optimizations -cpp -fdefault-integer-8 -fopenmp
Definitions: _WARNING_WORKAROUND_;_MOLCAS_;_I8_;_LINUX_
Parallel: OFF (GA=OFF)


   ----------------------------------------------------------------------
  |
  |           Project: reactant
  |    Submitted from: /home/kenya/molcas_test/exercise_1
  |      Scratch area: /tmp/reactant
  |   Save outputs to: /home/kenya/molcas_test/exercise_1
  |            Molcas: /home/kenya/OpenMolcas/builds/gnu_dev_omp
  |
  | Scratch area is NOT empty
  |
  |    MOLCAS_DRIVER = /home/kenya/OpenMolcas/builds/gnu_dev_omp/pymolcas
  |    MOLCAS_NPROCS = 1
  |    MOLCAS_SOURCE = /home/kenya/OpenMolcas
  | MOLCAS_STRUCTURE = 0
  |
   ----------------------------------------------------------------------

++ ---------   Input file   ---------

&GATEWAY
Coord = reactant.Opt.xyz
  Basis = 6-31G*
  Group = Full
  NoCD

&SEWARD

&SCF

&MCKINLEY

-- ----------------------------------

*** symbolic link created: INPORB -> reactant.ScfOrb
--- Start Module: gateway at Sun Jul  7 16:09:49 2024 ---

()()()()()()()()()()()()()()()()()()()()()()()()()()()()()()()()()()()()()()()()()()()()()()()()()()

                                              &GATEWAY

                                   only a single process is used
                       available to each process: 2.0 GB of memory, 1 thread
                                            pid: 426096
()()()()()()()()()()()()()()()()()()()()()()()()()()()()()()()()()()()()()()()()()()()()()()()()()()

      Found SYMMETRY generators: xz z

++    Symmetry information:
      ---------------------

                    --- Group Generators ---
                    Rotation around the y-axis  
                    Reflection in the xy-plane  

                    Character Table for C2v

                             E   C2(y) s(xy) s(yz)
                    a1       1     1     1     1  y
                    b1       1    -1     1    -1  x, xy, Rz
                    a2       1     1    -1    -1  xz, Ry, I
                    b2       1    -1    -1     1  z, yz, Rx
--


++    Basis set information:
      ----------------------


      Basis set label: C.6-31G**....

      Electronic valence basis set:
      ------------------
      Associated Effective Charge   6.000000 au
      Associated Actual Charge      6.000000 au
      Nuclear Model: Point charge

      Shell  nPrim  nBasis  Cartesian Spherical Contaminant
         s      10       3        X                  
         p       4       2        X                  
         d       1       1        X                  


      Basis set label: H.6-31G....

      Electronic valence basis set:
      ------------------
      Associated Effective Charge   1.000000 au
      Associated Actual Charge      1.000000 au
      Nuclear Model: Point charge

      Shell  nPrim  nBasis  Cartesian Spherical Contaminant
         s       4       2        X                  


      Basis set label: C.6-31G**....

      Electronic valence basis set:
      ------------------
      Associated Effective Charge   6.000000 au
      Associated Actual Charge      6.000000 au
      Nuclear Model: Point charge

      Shell  nPrim  nBasis  Cartesian Spherical Contaminant
         s      10       3        X                  
         p       4       2        X                  
         d       1       1        X                  


      Basis set label: H.6-31G....

      Electronic valence basis set:
      ------------------
      Associated Effective Charge   1.000000 au
      Associated Actual Charge      1.000000 au
      Nuclear Model: Point charge

      Shell  nPrim  nBasis  Cartesian Spherical Contaminant
         s       4       2        X                  
--


++    Molecular structure info:
      -------------------------

                    ************************************************ 
                    **** Cartesian Coordinates / Bohr, Angstrom **** 
                    ************************************************ 

     Center  Label                x              y              z                     x              y              z
        1      C1              -4.172973       1.986301       0.000000             -2.208242       1.051105       0.000000
        2      C1               4.172973       1.986301       0.000000              2.208242       1.051105       0.000000
        3      C2              -2.816697       0.197092       0.000000             -1.490532       0.104296       0.000000
        4      C2               2.816697       0.197092       0.000000              1.490532       0.104296       0.000000
        5      H3               5.357921       3.593997       0.000000              2.835290       1.901861       0.000000
        6      H3              -5.357921       3.593997       0.000000             -2.835290       1.901861       0.000000
        7      C4              -1.255211      -2.017723       0.000000             -0.664229      -1.067733       0.000000
        8      C4               1.255211      -2.017723       0.000000              0.664229      -1.067733       0.000000
        9      H5              -2.232183      -3.799118       0.000000             -1.181220      -2.010406       0.000000
       10      H5               2.232183      -3.799118       0.000000              1.181220      -2.010406       0.000000

                    *************************************** 
                    *    InterNuclear Distances / Bohr    * 
                    *************************************** 

               1 C1            2 C1            3 C2            4 C2            5 H3            6 H3    
    1 C1       0.000000
    2 C1       8.345946        0.000000
    3 C2       2.245163        7.215037        0.000000
    4 C2       7.215037        2.245163        5.633394        0.000000
    5 H3       9.665538        1.997195        8.852307        4.242262        0.000000
    6 H3       1.997195        9.665538        4.242262        8.852307       10.715842        0.000000
    7 C4       4.954346        6.745176        2.709916        4.635282        8.673230        6.951520
    8 C4       6.745176        4.954346        4.635282        2.709916        6.951520        8.673230
    9 H5       6.102273        8.631170        4.038731        6.439012       10.595651        8.026729
   10 H5       8.631170        6.102273        6.439012        4.038731        8.026729       10.595651

               7 C4            8 C4            9 H5           10 H5    
    7 C4       0.000000
    8 C4       2.510422        0.000000
    9 H5       2.031709        3.916029        0.000000
   10 H5       3.916029        2.031709        4.464365        0.000000

                    ******************************************* 
                    *    InterNuclear Distances / Angstrom    * 
                    ******************************************* 

               1 C1            2 C1            3 C2            4 C2            5 H3            6 H3    
    1 C1       0.000000
    2 C1       4.416485        0.000000
    3 C2       1.188089        3.818033        0.000000
    4 C2       3.818033        1.188089        2.981064        0.000000
    5 H3       5.114783        1.056870        4.684439        2.244908        0.000000
    6 H3       1.056870        5.114783        2.244908        4.684439        5.670579        0.000000
    7 C4       2.621727        3.569393        1.434026        2.452886        4.589676        3.678586
    8 C4       3.569393        2.621727        2.452886        1.434026        3.678586        4.589676
    9 H5       3.229184        4.567418        2.137204        3.407378        5.606977        4.247562
   10 H5       4.567418        3.229184        3.407378        2.137204        4.247562        5.606977

               7 C4            8 C4            9 H5           10 H5    
    7 C4       0.000000
    8 C4       1.328458        0.000000
    9 H5       1.075134        2.072273        0.000000
   10 H5       2.072273        1.075134        2.362440        0.000000

                    ************************************** 
                    *    Valence Bond Angles / Degree    * 
                    ************************************** 
                          Atom centers                 Phi
                      3 C2       1 C1       6 H3       179.23
                      4 C2       2 C1       5 H3       179.23
                      1 C1       3 C2       7 C4       178.02
                      2 C1       4 C2       8 C4       178.02
                      3 C2       7 C4       8 C4       125.18
                      3 C2       7 C4       9 H5       116.07
                      8 C4       7 C4       9 H5       118.74
                      4 C2       8 C4       7 C4       125.18
                      4 C2       8 C4      10 H5       116.07
                      7 C4       8 C4      10 H5       118.74

           ***************************************************************
           *              Valence Dihedral Angles / Degree               *
           ***************************************************************
                    Atom centers                       Phi1     Phi2     Theta 
           6 H3       1 C1       3 C2       7 C4        179.23   178.02  -180.00
           5 H3       2 C1       4 C2       8 C4        179.23   178.02  -180.00
           1 C1       3 C2       7 C4       8 C4        178.02   125.18  -180.00
           1 C1       3 C2       7 C4       9 H5        178.02   116.07    -0.00
           2 C1       4 C2       8 C4       7 C4        178.02   125.18  -180.00
           2 C1       4 C2       8 C4      10 H5        178.02   116.07    -0.00
           3 C2       7 C4       8 C4       4 C2        125.18   125.18    -0.00
           3 C2       7 C4       8 C4      10 H5        125.18   118.74  -180.00
           9 H5       7 C4       8 C4      10 H5        118.74   118.74    -0.00
           4 C2       8 C4       7 C4       9 H5        125.18   118.74  -180.00
--


            Nuclear Potential Energy            166.86298428 au

--- Stop Module: gateway at Sun Jul  7 16:09:50 2024 /rc=_RC_ALL_IS_WELL_ ---
*** files: xmldump
    saved to directory /home/kenya/molcas_test/exercise_1

*** symbolic link created: INPORB -> reactant.ScfOrb
--- Start Module: seward at Sun Jul  7 16:09:50 2024 ---

()()()()()()()()()()()()()()()()()()()()()()()()()()()()()()()()()()()()()()()()()()()()()()()()()()

                                              &SEWARD

                                   only a single process is used
                       available to each process: 2.0 GB of memory, 1 thread
                                            pid: 426100
()()()()()()()()()()()()()()()()()()()()()()()()()()()()()()()()()()()()()()()()()()()()()()()()()()

               SEWARD will generate:
                  Multipole Moment integrals up to order  2
                  Kinetic Energy integrals
                  Nuclear Attraction integrals (point charge)
                  One-Electron Hamiltonian integrals
                  Velocity integrals
                  Orbital angular momentum around ( 0.0000  0.0469  0.0000 )
                  Velocity quadrupole around ( 0.0000  0.0469  0.0000 )
                  Two-Electron Repulsion integrals

                   Integrals are discarded if absolute value <: 1.00E-14
                   Integral cutoff threshold is set to       <: 1.00E-16

                    Unitary symmetry adaptation


            Nuclear Potential Energy            166.86298428 au


      Basis set specifications :
      Symmetry species         a1   b1   a2   b2 
      Basis functions           37   37   12   12


      Input file to MOLDEN was generated!

--- Stop Module: seward at Sun Jul  7 16:09:51 2024 /rc=_RC_ALL_IS_WELL_ ---
*** files: reactant.GssOrb reactant.guessorb.molden xmldump
    saved to directory /home/kenya/molcas_test/exercise_1
--- Module seward spent 1 second ---

*** symbolic link created: INPORB -> reactant.ScfOrb
--- Start Module: scf at Sun Jul  7 16:09:51 2024 ---

()()()()()()()()()()()()()()()()()()()()()()()()()()()()()()()()()()()()()()()()()()()()()()()()()()

                                                &SCF

                                   only a single process is used
                       available to each process: 2.0 GB of memory, 1 thread
                                            pid: 426133
()()()()()()()()()()()()()()()()()()()()()()()()()()()()()()()()()()()()()()()()()()()()()()()()()()

++    Input section:
      --------------

      Header of the integral files:
      
       Integrals generated by Gateway/Seward, Sun Jul  7 16:09:50 2024


      Cartesian coordinates in Angstrom:
      -----------------------------------------------------
      No.  Label        X            Y            Z        
      -----------------------------------------------------
       1   C1        -2.20824230   1.05110525   0.00000000
       2   C2        -1.49053185   0.10429648   0.00000000
       3   H3         2.83528975   1.90186130   0.00000000
       4   C4        -0.66422916  -1.06773300   0.00000000
       5   H5        -1.18122020  -2.01040645   0.00000000
       6   C1         2.20824230   1.05110525   0.00000000
       7   C2         1.49053185   0.10429648   0.00000000
       8   H3        -2.83528975   1.90186130   0.00000000
       9   C4         0.66422916  -1.06773300   0.00000000
      10   H5         1.18122020  -2.01040645   0.00000000
      -----------------------------------------------------
      Nuclear repulsion energy =  166.86298428
--

++    Orbital specifications:
      -----------------------

      Symmetry species               1   2   3   4
                                    a1  b1  a2  b2
      Frozen orbitals                0   0   0   0
      Occupied orbitals              9   8   1   2
      Secondary orbitals            28  29  11  10
      Deleted orbitals               0   0   0   0
      Total number of orbitals      37  37  12  12
      Number of basis functions     37  37  12  12
--

      Molecular charge                           0.000

++    Optimization specifications:
      ----------------------------

      SCF Algorithm: Conventional
      Minimized density differences are used
      Number of density matrices in core                 5
      Maximum number of NDDO SCF iterations            400
      Maximum number of HF SCF iterations              400
      Threshold for SCF energy change             1.00E-09
      Threshold for density matrix                1.00E-04
      Threshold for Fock matrix                   1.50E-04
      Threshold for linear dependence             1.00E-09
      Threshold at which DIIS is turned on        1.50E-01
      Maximum depth in the DIIS procedure                5
      Maximum depth in the BFGS Hessian update          30
      Threshold at which QNR/C2DIIS is turned on  7.50E-02
      Threshold for Norm(delta) (QNR/C2DIIS)      1.00E-03
      All orbitals punched on: SCFORB
--

      Input vectors read from INPORB
      Orbital file label: * SCF orbitals


++ Convergence information
                                   SCF        iterations: Energy and convergence statistics

Iter     Tot. SCF        One-elec.       Two-elec.     Energy      Max Dij or  Max Fij      DNorm      TNorm      AccCon     Time
         Energy          Energy          Energy        Change      Delta Norm                                                in Sec.
   1  -229.382625449  -638.734439589   242.488829856   0.00E+00    5.12E-06    1.46E-06     7.18E+00   2.35E+02   None         0.
   2  -229.382625449  -638.734489536   242.488879802  -1.38E-11    1.65E-06    8.61E-07     2.27E-05   2.35E+02   EDIIS        0.

       Convergence after   2 Macro Iterations
--

 *****************************************************************************************************************************
 *                                                                                                                           *
 *                                             SCF/KS-DFT Program, Final results                                             *
 *                                                                                                                           *
 *                                                                                                                           *
 *                                                                                                                           *
 *                                                       Final Results                                                       *
 *                                                                                                                           *
 *****************************************************************************************************************************

::    Total SCF energy                               -229.3826254492
      One-electron energy                            -638.7344895360
      Two-electron energy                             242.4888798021
      Nuclear repulsion energy                        166.8629842846
      Kinetic energy (interpolated)                   229.1407439432
      Virial theorem                                    1.0010556023
      Total spin, S(S+1)                                0.0000000000
      Total spin, S                                     0.0000000000
      Max non-diagonal density matrix element           0.0000016454
      Max non-diagonal Fock matrix element              0.0000008615


      All orbitals with orbital energies smaller than  E(LUMO)+0.5 are printed

++    Molecular orbitals:
      -------------------

      Title: SCF orbitals

      Molecular orbitals for symmetry species 1: a1 

          Orbital            1         2         3         4         5         6         7         8         9        10    
          Energy          -11.2708  -11.2364  -11.2298   -1.1161   -0.9986   -0.7503   -0.6829   -0.6484   -0.4000    0.1933
          Occ. No.          2.0000    2.0000    2.0000    2.0000    2.0000    2.0000    2.0000    2.0000    2.0000    0.0000

        1 C1     1s         0.0003    0.3233   -0.9415   -0.0615    0.1675   -0.0958   -0.0129   -0.0101    0.0038    0.0060
        2 C1     2s         0.0003    0.0077   -0.0261    0.1083   -0.3075    0.1948    0.0416    0.0097   -0.0095   -0.0316
        3 C1     *s        -0.0045    0.0008    0.0146    0.1512   -0.2593    0.1325   -0.1075    0.1079    0.0212    0.1939
        4 C1     2px        0.0001   -0.0004   -0.0002    0.0402   -0.0848   -0.1298   -0.1796    0.1458    0.3065   -0.2483
        5 C1     *px       -0.0020    0.0008    0.0027    0.0279    0.0011   -0.0807   -0.1104    0.0912    0.2260   -0.4109
        6 C1     2py       -0.0001    0.0004    0.0002   -0.0505    0.1136    0.1676    0.2838   -0.1008    0.2413   -0.1619
        7 C1     *py        0.0026   -0.0014   -0.0037   -0.0362   -0.0039    0.0995    0.1699   -0.0716    0.1477   -0.4563
        8 C1     *200       0.0001   -0.0005    0.0012    0.0003   -0.0012    0.0035    0.0053    0.0018    0.0120    0.0118
        9 C1     *110      -0.0001   -0.0005    0.0010   -0.0055    0.0231   -0.0229   -0.0108    0.0006   -0.0070   -0.0068
       10 C1     *020       0.0000   -0.0003    0.0009    0.0015   -0.0080    0.0111    0.0052   -0.0062   -0.0119   -0.0127
       11 C1     *002       0.0000   -0.0007    0.0015   -0.0020    0.0076   -0.0047    0.0001   -0.0009   -0.0003   -0.0018
       12 C2     1s         0.0118    0.9409    0.3248   -0.1202    0.1255    0.0981    0.0156    0.0153   -0.0027   -0.0028
       13 C2     2s         0.0002    0.0252    0.0100    0.2294   -0.2232   -0.2033   -0.0219   -0.0361    0.0022   -0.0343
       14 C2     *s         0.0073   -0.0077   -0.0120    0.0845   -0.1831   -0.0968    0.1057   -0.1184    0.0086    0.1041
       15 C2     2px       -0.0000    0.0000   -0.0003    0.0336    0.1380   -0.0944    0.2155   -0.0358    0.3079    0.2210
       16 C2     *px       -0.0013   -0.0000    0.0031    0.0502   -0.0083   -0.0502   -0.0513    0.0638    0.2324    0.5547
       17 C2     2py        0.0001   -0.0003    0.0003   -0.0350   -0.1765    0.1138   -0.1943    0.2431    0.2163    0.1569
       18 C2     *py        0.0017    0.0007   -0.0038   -0.0643    0.0198    0.0703    0.0962   -0.0198    0.1271    0.0586
       19 C2     *200      -0.0002   -0.0011   -0.0004    0.0027    0.0020   -0.0018    0.0026    0.0040   -0.0143    0.0161
       20 C2     *110       0.0003   -0.0015   -0.0001   -0.0200    0.0060    0.0175   -0.0003   -0.0021    0.0098   -0.0021
       21 C2     *020      -0.0005   -0.0006   -0.0003    0.0076   -0.0003   -0.0071   -0.0006   -0.0048    0.0133   -0.0176
       22 C2     *002      -0.0001   -0.0017   -0.0004   -0.0054    0.0043    0.0046    0.0016    0.0002   -0.0003   -0.0027
       23 H3     1s        -0.0002   -0.0004    0.0009    0.0205   -0.0732    0.2077    0.2015   -0.0865    0.0032   -0.0000
       24 H3     *s        -0.0010    0.0009   -0.0007    0.0098   -0.0006    0.0909    0.1015   -0.0446    0.0095    0.0520
       25 C4     1s         0.9952   -0.0117   -0.0037   -0.1923   -0.1040   -0.0301   -0.0025   -0.0142    0.0173    0.0635
       26 C4     2s         0.0273   -0.0003   -0.0002    0.3727    0.1974    0.0582    0.0023    0.0350   -0.0394   -0.1029
       27 C4     *s        -0.0072    0.0026   -0.0000    0.2157    0.1999    0.0688    0.0797   -0.0798   -0.0569   -1.0351
       28 C4     2px       -0.0005    0.0005    0.0001    0.0930    0.1168    0.1853    0.0392    0.5256   -0.1441    0.0131
       29 C4     *px        0.0011   -0.0007   -0.0002    0.0125    0.0034    0.0416    0.0018    0.1989   -0.0609    0.3625
       30 C4     2py        0.0005   -0.0007   -0.0001    0.0421   -0.0504   -0.2738    0.3299    0.0862   -0.0701    0.0866
       31 C4     *py       -0.0002    0.0008    0.0001   -0.0155    0.0023   -0.0920    0.1672    0.0208   -0.0522    0.2307
       32 C4     *200      -0.0010   -0.0003   -0.0000    0.0108    0.0062    0.0049    0.0002    0.0071   -0.0095   -0.0148
       33 C4     *110      -0.0001    0.0005    0.0001   -0.0000    0.0068    0.0115   -0.0106    0.0025    0.0087    0.0248
       34 C4     *020      -0.0012   -0.0005   -0.0001    0.0033   -0.0018   -0.0027   -0.0027   -0.0167    0.0130    0.0189
       35 C4     *002      -0.0015   -0.0001   -0.0000   -0.0090   -0.0050   -0.0005   -0.0005    0.0012   -0.0004   -0.0003
       36 H5     1s        -0.0001   -0.0001   -0.0001    0.0915    0.0653    0.1043   -0.1717   -0.1779    0.0953    0.1040
       37 H5     *s         0.0019    0.0002    0.0001    0.0053    0.0164    0.0510   -0.0949   -0.1253    0.1068    1.1102

          Orbital           11        12        13        14    
          Energy            0.2705    0.2981    0.4179    0.5894
          Occ. No.          0.0000    0.0000    0.0000    0.0000

        1 C1     1s        -0.0950    0.0020   -0.0384    0.0580
        2 C1     2s         0.1846    0.0041    0.2072   -0.2824
        3 C1     *s        -1.0148   -0.1688   -1.1941   -5.2590
        4 C1     2px       -0.1207    0.1444    0.1464   -0.1124
        5 C1     *px       -1.8198    0.4592   -0.1615   -2.0390
        6 C1     2py        0.1663    0.0882   -0.1944    0.1234
        7 C1     *py        2.4206    0.3423   -0.0783    2.5593
        8 C1     *200      -0.0032   -0.0107    0.0101   -0.0105
        9 C1     *110       0.0247    0.0067    0.0003   -0.0060
       10 C1     *020      -0.0104    0.0105   -0.0032   -0.0080
       11 C1     *002       0.0062    0.0000    0.0058   -0.0142
       12 C2     1s         0.0473    0.0080    0.1201   -0.0479
       13 C2     2s        -0.1599   -0.0117   -0.0254   -0.5892
       14 C2     *s         2.2180   -0.0593   -2.2051    3.6623
       15 C2     2px        0.0513   -0.1700   -0.0895   -0.1025
       16 C2     *px       -1.4242   -0.6904   -1.0289   -2.9854
       17 C2     2py       -0.0547   -0.0955    0.3153    0.0682
       18 C2     *py        1.9028   -0.3442    1.6963    4.3933
       19 C2     *200       0.0011   -0.0021    0.0078   -0.0360
       20 C2     *110      -0.0192    0.0005   -0.0278    0.0714
       21 C2     *020       0.0069    0.0041    0.0134   -0.0626
       22 C2     *002      -0.0062   -0.0014   -0.0032   -0.0215
       23 H3     1s        -0.0734    0.0025   -0.0448    0.0083
       24 H3     *s        -2.9749    0.0870    0.4716   -0.9888
       25 C4     1s        -0.0187    0.0516   -0.0930   -0.0159
       26 C4     2s         0.0016   -0.0070    0.1028   -0.3551
       27 C4     *s         1.1384   -1.2568    2.5723    3.6028
       28 C4     2px       -0.0532    0.2130   -0.1745    0.3552
       29 C4     *px       -0.3302    0.5630   -1.2224   -1.7089
       30 C4     2py        0.0750    0.2732    0.2508   -0.3647
       31 C4     *py        0.5450    0.8871    1.3121    1.6548
       32 C4     *200       0.0001    0.0120    0.0047    0.0067
       33 C4     *110       0.0058    0.0049    0.0585    0.0057
       34 C4     *020       0.0002   -0.0095   -0.0045   -0.0255
       35 C4     *002      -0.0018    0.0045    0.0026   -0.0137
       36 H5     1s         0.0033   -0.0419    0.1196    0.0290
       37 H5     *s         0.1474    1.9058    0.0395    0.0014

      Molecular orbitals for symmetry species 2: b1 

          Orbital            1         2         3         4         5         6         7         8         9        10    
          Energy          -11.2691  -11.2364  -11.2298   -1.0376   -0.8662   -0.7089   -0.5722   -0.3932    0.2385    0.2706
          Occ. No.          2.0000    2.0000    2.0000    2.0000    2.0000    2.0000    2.0000    2.0000    0.0000    0.0000

        1 C1     1s         0.0005    0.3227   -0.9417   -0.1579    0.1102   -0.0604    0.0280   -0.0025   -0.0091   -0.0906
        2 C1     2s         0.0004    0.0076   -0.0261    0.2863   -0.2088    0.1385   -0.0461    0.0077    0.0245    0.1840
        3 C1     *s         0.0006    0.0002    0.0131    0.3461   -0.1956   -0.1251   -0.2070    0.0588    0.2620   -1.7014
        4 C1     2px        0.0002   -0.0004   -0.0002    0.0879   -0.0214   -0.2495   -0.0604    0.3338   -0.2512   -0.1175
        5 C1     *px       -0.0004    0.0010    0.0024    0.0368    0.0079   -0.1837   -0.0606    0.2433   -0.6278   -2.0254
        6 C1     2py       -0.0003    0.0005    0.0003   -0.1198    0.0140    0.3245    0.1380    0.2366   -0.1921    0.1863
        7 C1     *py        0.0004   -0.0011   -0.0031   -0.0528   -0.0197    0.2385    0.1177    0.1418   -0.4741    2.7878
        8 C1     *200       0.0000   -0.0005    0.0012    0.0007   -0.0025    0.0048    0.0032    0.0128    0.0181   -0.0044
        9 C1     *110      -0.0001   -0.0005    0.0010   -0.0195    0.0204   -0.0203    0.0005   -0.0073   -0.0084    0.0270
       10 C1     *020       0.0001   -0.0004    0.0009    0.0070   -0.0067    0.0121   -0.0012   -0.0127   -0.0191   -0.0099
       11 C1     *002      -0.0000   -0.0007    0.0015   -0.0064    0.0059   -0.0023    0.0020    0.0004    0.0018    0.0066
       12 C2     1s         0.0127    0.9412    0.3242   -0.1801   -0.0358    0.0753   -0.0565    0.0017   -0.0007    0.0406
       13 C2     2s         0.0005    0.0255    0.0101    0.3307    0.0876   -0.1443    0.1261    0.0025    0.0291   -0.1382
       14 C2     *s         0.0069   -0.0094   -0.0125    0.2005    0.0400    0.0409    0.1755   -0.0217    0.1081    2.4351
       15 C2     2px       -0.0000    0.0003   -0.0002   -0.0726    0.1603    0.0863    0.2329    0.3105    0.3249    0.0467
       16 C2     *px        0.0029   -0.0015    0.0016    0.0952    0.0138   -0.1609   -0.0564    0.2427    0.7356   -1.9442
       17 C2     2py        0.0001   -0.0003    0.0003    0.0809   -0.2571   -0.1378   -0.2062    0.2587    0.2254   -0.0949
       18 C2     *py       -0.0029    0.0016   -0.0022   -0.1258   -0.0149    0.2093    0.0950    0.1000    0.2227    2.4789
       19 C2     *200      -0.0003   -0.0009   -0.0003   -0.0005    0.0020   -0.0006    0.0019   -0.0134    0.0156    0.0008
       20 C2     *110       0.0004   -0.0016   -0.0001   -0.0193   -0.0147    0.0119   -0.0084    0.0050   -0.0203   -0.0160
       21 C2     *020      -0.0005   -0.0005   -0.0003    0.0061    0.0096   -0.0023    0.0015    0.0143   -0.0117    0.0074
       22 C2     *002      -0.0001   -0.0015   -0.0003   -0.0075   -0.0022    0.0044   -0.0008    0.0008    0.0023   -0.0048
       23 H3     1s         0.0001    0.0004   -0.0009   -0.0621    0.0876   -0.2859   -0.0583    0.0008    0.0074    0.0727
       24 H3     *s         0.0003   -0.0009    0.0008   -0.0139    0.0225   -0.1224   -0.0281   -0.0045    0.1127    3.1095
       25 C4     1s         0.9959   -0.0126   -0.0039   -0.0577   -0.1463   -0.0451    0.0224   -0.0204   -0.0348   -0.0266
       26 C4     2s         0.0283    0.0000   -0.0002    0.1183    0.2907    0.0832   -0.0498    0.0426    0.0772   -0.0033
       27 C4     *s        -0.0212    0.0028    0.0011   -0.0236    0.2818    0.2557    0.0766    0.0760    0.5100    1.7293
       28 C4     2px       -0.0001    0.0003    0.0001   -0.0833   -0.2047   -0.0620    0.0305    0.0099    0.0961   -0.0345
       29 C4     *px       -0.0021   -0.0023   -0.0011    0.0191   -0.0919   -0.0828    0.0065    0.0525    0.6109   -0.4925
       30 C4     2py        0.0006   -0.0005   -0.0000    0.0490    0.0323   -0.0617    0.4179   -0.0415    0.0379    0.0360
       31 C4     *py       -0.0050    0.0011    0.0013   -0.0645   -0.0000    0.0639    0.3377   -0.0842   -0.2126    0.9844
       32 C4     *200      -0.0006   -0.0006   -0.0001    0.0009   -0.0008    0.0009   -0.0004   -0.0093   -0.0211    0.0055
       33 C4     *110      -0.0003    0.0007    0.0001   -0.0070   -0.0009    0.0064   -0.0466    0.0116    0.0091   -0.0043
       34 C4     *020      -0.0008   -0.0006   -0.0001    0.0062    0.0125    0.0057   -0.0045    0.0086    0.0187    0.0023
       35 C4     *002      -0.0013   -0.0001   -0.0000   -0.0028   -0.0074   -0.0024    0.0006   -0.0004    0.0019   -0.0032
       36 H5     1s        -0.0002   -0.0002   -0.0000    0.0383    0.1484    0.0897   -0.2808    0.0646    0.0705   -0.0163
       37 H5     *s         0.0009   -0.0004    0.0001   -0.0015    0.0451    0.0572   -0.1774    0.0512    0.1607   -0.0115

          Orbital           11        12    
          Energy            0.3143    0.5676
          Occ. No.          0.0000    0.0000

        1 C1     1s         0.0167   -0.0700
        2 C1     2s        -0.0397    0.2625
        3 C1     *s        -2.1292    1.8105
        4 C1     2px       -0.0452    0.0774
        5 C1     *px       -0.7857    1.3376
        6 C1     2py        0.0787   -0.2638
        7 C1     *py        1.2020   -1.0257
        8 C1     *200       0.0006   -0.0091
        9 C1     *110       0.0013    0.0196
       10 C1     *020      -0.0038    0.0160
       11 C1     *002      -0.0012    0.0105
       12 C2     1s        -0.0355    0.1141
       13 C2     2s         0.0186    0.1417
       14 C2     *s         0.7621   -3.6441
       15 C2     2px        0.1077   -0.2483
       16 C2     *px       -1.7234    0.0970
       17 C2     2py       -0.0643   -0.0275
       18 C2     *py        1.8266   -1.1141
       19 C2     *200      -0.0046    0.0192
       20 C2     *110       0.0213   -0.0601
       21 C2     *020      -0.0086    0.0214
       22 C2     *002      -0.0011   -0.0045
       23 H3     1s        -0.0038    0.0988
       24 H3     *s         0.5878   -0.8106
       25 C4     1s         0.1106   -0.1195
       26 C4     2s        -0.2390    0.2469
       27 C4     *s        -0.5059    2.5796
       28 C4     2px        0.1187   -0.0434
       29 C4     *px       -0.1558    2.3041
       30 C4     2py        0.1548    0.4089
       31 C4     *py        2.8627    1.5660
       32 C4     *200       0.0071    0.0129
       33 C4     *110      -0.0183   -0.0178
       34 C4     *020       0.0049   -0.0008
       35 C4     *002      -0.0050    0.0110
       36 H5     1s         0.0080   -0.0698
       37 H5     *s         2.8310    1.4734

      Molecular orbitals for symmetry species 3: a2 

          Orbital            1         2         3    
          Energy           -0.4159    0.0956    0.3589
          Occ. No.          2.0000    0.0000    0.0000

        1 C1     2pz        0.3763   -0.2972    0.1744
        2 C1     *pz        0.2501   -0.4630    0.8192
        3 C1     *101       0.0158    0.0074   -0.0291
        4 C1     *011      -0.0214   -0.0102    0.0378
        5 C2     2pz        0.4116    0.1484   -0.4128
        6 C2     *pz        0.2569    0.2322   -0.9957
        7 C2     *101      -0.0133    0.0234   -0.0002
        8 C2     *011       0.0146   -0.0394   -0.0064
        9 C4     2pz        0.1040    0.4139    0.3559
       10 C4     *pz        0.0741    0.6542    1.0665
       11 C4     *101      -0.0134   -0.0335   -0.0142
       12 C4     *011       0.0119    0.0079   -0.0269

      Molecular orbitals for symmetry species 4: b2 

          Orbital            1         2         3    
          Energy           -0.4892   -0.3267    0.2583
          Occ. No.          2.0000    2.0000    0.0000

        1 C1     2pz        0.2183   -0.3545   -0.3055
        2 C1     *pz        0.1299   -0.2710   -0.8642
        3 C1     *101       0.0116   -0.0103    0.0234
        4 C1     *011      -0.0154    0.0133   -0.0304
        5 C2     2pz        0.3083   -0.2513    0.3814
        6 C2     *pz        0.1698   -0.1984    0.9221
        7 C2     *101       0.0006    0.0237    0.0153
        8 C2     *011      -0.0002   -0.0291   -0.0184
        9 C4     2pz        0.3888    0.3750   -0.1530
       10 C4     *pz        0.2568    0.3292   -0.3042
       11 C4     *101       0.0174    0.0308   -0.0314
       12 C4     *011       0.0111   -0.0068    0.0357
--


++    Molecular charges:
      ------------------

      Mulliken charges per centre and basis function type
      ---------------------------------------------------

                C1      C2      H3      C4      H5    
      1s       1.9965  1.9966  0.5011  1.9966  0.5247
      2s       0.6686  0.6748  0.0000  0.6683  0.0000
      2px      0.6551  0.6548  0.0000  0.7576  0.0000
      2pz      0.5594  0.5817  0.0000  0.5357  0.0000
      2py      0.7208  0.7219  0.0000  0.7088  0.0000
      *s       0.5446  0.3893  0.2013  0.4641  0.2436
      *px      0.4587  0.2799  0.0000  0.2018  0.0000
      *110     0.0115  0.0101  0.0000  0.0191  0.0000
      *020     0.0367  0.0285  0.0000  0.0249  0.0000
      *002    -0.0192 -0.0180  0.0000 -0.0193  0.0000
      *200     0.0117  0.0077  0.0000  0.0242  0.0000
      *pz      0.4269  0.4026  0.0000  0.4583  0.0000
      *py      0.4257  0.1043  0.0000  0.3226  0.0000
      *101     0.0036  0.0055  0.0000  0.0093  0.0000
      *011     0.0063  0.0085  0.0000  0.0023  0.0000
      Total    6.5070  5.8480  0.7024  6.1743  0.7683

      N-E     -0.5070  0.1520  0.2976 -0.1743  0.2317

      Total electronic charge=   40.000000

      Total            charge=   -0.000000
--


++    Molecular properties:
      ---------------------

      Charge (e):
                      =   -0.0000
      Dipole Moment (Debye):
      Origin of the operator (Ang)=    0.0000    0.0000    0.0000
                   X=  0.0000E+00               Y= -1.8432E-01               Z=  0.0000E+00           Total=  1.8432E-01
      Quadrupole Moment (Debye*Ang):
      Origin of the operator (Ang)=    0.0000    0.0248    0.0000
                  XX= -3.0120E+01              XY=  0.0000E+00              XZ=  0.0000E+00              YY= -2.6424E+01
                  YZ=  0.0000E+00              ZZ= -3.7591E+01
      In traceless form (Debye*Ang)
                  XX=  1.8873E+00              XY=  0.0000E+00              XZ=  0.0000E+00              YY=  7.4315E+00
                  YZ=  0.0000E+00              ZZ= -9.3187E+00
--


      Input file to MOLDEN was generated!

 ###############################################################################
 ###############################################################################
 ###                                                                         ###
 ###                                                                         ###
 ###    WARNING: RunFile label nBas                                          ###
 ###    was used       60 times                                              ###
 ###                                                                         ###
 ###                                                                         ###
 ###############################################################################
 ###############################################################################
--- Stop Module: scf at Sun Jul  7 16:09:52 2024 /rc=_RC_ALL_IS_WELL_ ---
*** files: reactant.scf.molden reactant.ScfOrb xmldump
    saved to directory /home/kenya/molcas_test/exercise_1

*** symbolic link created: INPORB -> reactant.ScfOrb
--- Start Module: mckinley at Sun Jul  7 16:09:52 2024 ---

()()()()()()()()()()()()()()()()()()()()()()()()()()()()()()()()()()()()()()()()()()()()()()()()()()

                                             &MCKINLEY

                                   only a single process is used
                       available to each process: 2.0 GB of memory, 1 thread
                                            pid: 426146
()()()()()()()()()()()()()()()()()()()()()()()()()()()()()()()()()()()()()()()()()()()()()()()()()()


                     Threshold for contributions to the gradient or Hessian: 1.000E-07

 **************************************************************************************************************************
 *                                                                                                                        *
 *                 All data is written to disk, and could be accessed through the MCLR or RASSI program.                  *
 *                                                                                                                        *
 **************************************************************************************************************************
--- Stop Module: mckinley at Sun Jul  7 16:10:04 2024 /rc=_RC_INVOKED_OTHER_MODULE_ ---
*** files: xmldump
    saved to directory /home/kenya/molcas_test/exercise_1
--- Module mckinley spent 12 seconds ---

*** symbolic link created: INPORB -> reactant.ScfOrb
--- Start Module: mclr at Sun Jul  7 16:10:04 2024 ---

()()()()()()()()()()()()()()()()()()()()()()()()()()()()()()()()()()()()()()()()()()()()()()()()()()

                                               &MCLR

                                   only a single process is used
                       available to each process: 2.0 GB of memory, 1 thread
                                            pid: 426292
()()()()()()()()()()()()()()()()()()()()()()()()()()()()()()()()()()()()()()()()()()()()()()()()()()

 Ordinary integral handling
 OrdInt status: non-squared

++   Wave function specifications:
     -----------------------------
     Wavefunction type:                          SCF
     Number of irreducible symmetry groups       4
     Number of basis functions                  37    37    12    12
     Number of occupied orbitals                 9     8     1     2
     SCF energy =                  -229.3826254492
--

     Convergence threshold=               1.0000E-04
     Max number of iterations in PCG:            200

++   Perturbation specifications:
     ----------------------------

     Number of perturbations in each symmetry     11  11   5   6
     Type of perturbation:                         Hessian         
--

++   Perturbations:
     --------------

     -------------------------------------
      No.    Symmetry    Center Direction 
     -------------------------------------
       1       a1           C1         x
       2       a1           C1         y
       3       a1           C2         x
       4       a1           C2         y
       5       a1           H3         x
       6       a1           H3         y
       7       a1           C4         x
       8       a1           C4         y
       9       a1           H5         x
      10       a1           H5         y
      11       a1           MLTPL  1 Y
      12       b1           C1         x
      13       b1           C1         y
      14       b1           C2         x
      15       b1           C2         y
      16       b1           H3         x
      17       b1           H3         y
      18       b1           C4         x
      19       b1           C4         y
      20       b1           H5         x
      21       b1           H5         y
      22       b1           MLTPL  1 X
      23       a2           C1         z
      24       a2           C2         z
      25       a2           H3         z
      26       a2           C4         z
      27       a2           H5         z
      28       b2           C1         z
      29       b2           C2         z
      30       b2           H3         z
      31       b2           C4         z
      32       b2           H5         z
      33       b2           MLTPL  1 Z
     -------------------------------------
--


     Linear response function is computed for Restricted Hartree-Fock wavefunction

 Process perturbation number                     1
      Perturbation no:    1 converged in    8 steps.

 Process perturbation number                     2
      Perturbation no:    2 converged in    8 steps.

 Process perturbation number                     3
      Perturbation no:    3 converged in    8 steps.

 Process perturbation number                     4
      Perturbation no:    4 converged in    8 steps.

 Process perturbation number                     5
      Perturbation no:    5 converged in    7 steps.

 Process perturbation number                     6
      Perturbation no:    6 converged in    7 steps.

 Process perturbation number                     7
      Perturbation no:    7 converged in    8 steps.

 Process perturbation number                     8
      Perturbation no:    8 converged in    8 steps.

 Process perturbation number                     9
      Perturbation no:    9 converged in    7 steps.

 Process perturbation number                    10
      Perturbation no:   10 converged in    7 steps.

 Process perturbation number                    11
      Perturbation no:   11 converged in    9 steps.

 Process perturbation number                    12
      Perturbation no:   12 converged in    8 steps.

 Process perturbation number                    13
      Perturbation no:   13 converged in    8 steps.

 Process perturbation number                    14
      Perturbation no:   14 converged in    8 steps.

 Process perturbation number                    15
      Perturbation no:   15 converged in    9 steps.

 Process perturbation number                    16
      Perturbation no:   16 converged in    8 steps.

 Process perturbation number                    17
      Perturbation no:   17 converged in    7 steps.

 Process perturbation number                    18
      Perturbation no:   18 converged in    8 steps.

 Process perturbation number                    19
      Perturbation no:   19 converged in    8 steps.

 Process perturbation number                    20
      Perturbation no:   20 converged in    7 steps.

 Process perturbation number                    21
      Perturbation no:   21 converged in    8 steps.

 Process perturbation number                    22
      Perturbation no:   22 converged in   10 steps.

 Process perturbation number                    23
      Perturbation no:   23 converged in    6 steps.

 Process perturbation number                    24
      Perturbation no:   24 converged in    6 steps.

 Process perturbation number                    25
      Perturbation no:   25 converged in    5 steps.

 Process perturbation number                    26
      Perturbation no:   26 converged in    6 steps.

 Process perturbation number                    27
      Perturbation no:   27 converged in    5 steps.

 Process perturbation number                    28
      Perturbation no:   28 converged in    6 steps.

 Process perturbation number                    29
      Perturbation no:   29 converged in    5 steps.

 Process perturbation number                    30
      Perturbation no:   30 converged in    5 steps.

 Process perturbation number                    31
      Perturbation no:   31 converged in    6 steps.

 Process perturbation number                    32
      Perturbation no:   32 converged in    5 steps.

 Process perturbation number                    33
      Perturbation no:   33 converged in    6 steps.


      ************************************
      *                                  *
      * Harmonic frequencies in cm-1     *
      * Intensities in km/mole           *
      *                                  *
      * No correction due to curvilinear *
      * representations has been done    *
      *                                  *
      ************************************


    Symmetry a1 
   ==============

                        1         2         3         4         5         6

     Frequency:        i0.13    119.63    494.89    808.84    933.72   1353.73                                          

     Intensity:    4.293E-09 1.216E-01 8.709E+00 2.843E+01 8.460E+00 7.644E-02
     Red. mass:      7.60311   4.43944   5.36836   1.30500   6.29489   1.09779

     C1         x    0.00000   0.33358  -0.01057   0.08498  -0.16019   0.01538
     C1         y    0.31623   0.13131  -0.12529   0.06421   0.19869  -0.01557
     C2         x   -0.00000   0.11652   0.38393  -0.03758  -0.06121  -0.02173
     C2         y    0.31623  -0.03223   0.18300  -0.02757   0.17286  -0.02704
     H3         x   -0.00000  -0.51414   0.33885   0.56187   0.20919  -0.02153
     H3         y    0.31623   0.26414  -0.37000  -0.41260   0.18852  -0.01628
     C4         x   -0.00000  -0.00015   0.02173   0.00037  -0.08265  -0.04623
     C4         y    0.31622  -0.11383  -0.03436  -0.00098  -0.36729   0.01651
     H5         x   -0.00000  -0.04419  -0.20364   0.02009  -0.35067  -0.62310
     H5         y    0.31623  -0.08855   0.09200  -0.01213  -0.23925   0.32699


                        7         8         9        10

     Frequency:      1833.63   2404.32   3385.09   3665.24                                                              

     Intensity:    3.184E+00 5.457E+00 1.477E+01 5.909E+01
     Red. mass:      6.66917   5.83406   1.09629   1.16781

     C1         x   -0.03724   0.16226   0.00000  -0.04874
     C1         y    0.05669  -0.21437  -0.00014   0.06570
     C2         x   -0.01885  -0.22671  -0.00076   0.01452
     C2         y   -0.02776   0.30179   0.00113  -0.01931
     H3         x    0.03804  -0.31732  -0.00161  -0.41633
     H3         y    0.09089  -0.42298  -0.00310  -0.56515
     C4         x    0.49675   0.04832  -0.03545  -0.00010
     C4         y   -0.07092  -0.04943  -0.05259   0.00119
     H5         x   -0.25590  -0.00206   0.33867  -0.00104
     H5         y    0.40901  -0.02942   0.61747  -0.00140



    Symmetry b1 
   ==============

                        1         2         3         4         5         6

     Frequency:        i2.63     i0.12    287.53    790.90    810.20   1099.77                                          

     Intensity:    5.316E-03 1.258E-07 6.002E+00 1.989E+01 4.516E+01 1.801E+01
     Red. mass:      5.01114   7.60187   4.18098   3.25139   1.58865   3.16472

     C1         x    0.14126  -0.31532   0.19075  -0.10691  -0.06819   0.09356
     C1         y    0.30112   0.00189   0.03743   0.07597  -0.10018  -0.10106
     C2         x    0.01215  -0.31613  -0.16187  -0.16304   0.08567  -0.03385
     C2         y    0.20325   0.00127  -0.22600  -0.00064   0.02651  -0.12078
     H3         x    0.25726  -0.31459   0.46986   0.36431   0.57298   0.10871
     H3         y   -0.38662  -0.00243  -0.24237  -0.43261  -0.36936   0.10955
     C4         x   -0.14767  -0.31713  -0.07758   0.21681  -0.05771  -0.03424
     C4         y    0.09057   0.00057  -0.15249   0.10613  -0.01902   0.24948
     H5         x   -0.27623  -0.31794   0.11019   0.26842  -0.09409  -0.41203
     H5         y    0.16107   0.00101  -0.25300   0.07762   0.00100   0.45641


                        7         8         9        10

     Frequency:      1545.62   2412.95   3364.96   3664.98                                                              

     Intensity:    4.335E+00 4.659E-03 2.477E-01 5.981E+01
     Red. mass:      1.43624   5.81012   1.08533   1.16837

     C1         x   -0.01597  -0.16136  -0.00008   0.04878
     C1         y    0.02331   0.21339  -0.00009  -0.06576
     C2         x   -0.01187   0.22591  -0.00018  -0.01464
     C2         y   -0.00878  -0.30273   0.00038   0.01954
     H3         x   -0.01682  -0.31740  -0.00011  -0.41632
     H3         y   -0.03156  -0.42416   0.00042  -0.56513
     C4         x    0.08250  -0.03929  -0.02788   0.00087
     C4         y   -0.10801   0.05139  -0.05242  -0.00126
     H5         x   -0.63387   0.01672   0.33519  -0.00049
     H5         y    0.27829   0.02502   0.61978  -0.00045



    Symmetry a2 
   ==============

                        1         2         3         4         5

     Frequency:        i1.08    253.03    665.83    797.35   1114.42                                                    

     C1         z   -0.37902  -0.16710   0.03854   0.11001   0.00060
     C2         z   -0.25584   0.19915  -0.25486  -0.05490   0.00550
     H3         z    0.48661   0.47482  -0.34168   0.69630   0.01386
     C4         z   -0.11401   0.21929   0.24566   0.00660  -0.11358
     H5         z   -0.20275   0.39858   0.50643   0.00300   0.69777



    Symmetry b2 
   ==============

                        1         2         3         4         5

     Frequency:        i3.80     i0.09    404.36    799.63    877.02                                                    

     Intensity:    2.087E-02 1.021E-05 2.202E+01 9.019E+01 3.947E+01
     Red. mass:      3.50357   7.60893   2.67583   1.28384   1.50377

     C1         z    0.22569   0.32359   0.10946  -0.10469   0.02302
     C2         z    0.01327   0.31685  -0.24564   0.03648  -0.08529
     H3         z    0.41653   0.32965   0.39030   0.69410  -0.01411
     C4         z   -0.24983   0.30849   0.05961   0.01624   0.12147
     H5         z   -0.46150   0.30177   0.52134  -0.07535  -0.69083



++ Thermochemistry

 *********************
 *                   *
 *  THERMOCHEMISTRY  *
 *                   *
 *********************

 Mass-centered Coordinates (Angstrom):
 ********************************************************
 Label        X           Y           Z          Mass  
 --------------------------------------------------------
 C1         0.000000    1.026309   -2.208242     12.00000
 C2         0.000000    0.079501   -1.490532     12.00000
 H3         0.000000    1.877065    2.835290      1.00783
 C4         0.000000   -1.092529   -0.664229     12.00000
 H5         0.000000   -2.035202   -1.181220      1.00783
 C1         0.000000    1.026309    2.208242     12.00000
 C2         0.000000    0.079501    1.490532     12.00000
 H3         0.000000    1.877065   -2.835290      1.00783
 C4         0.000000   -1.092529    0.664229     12.00000
 H5         0.000000   -2.035202    1.181220      1.00783
 --------------------------------------------------------
 Molecular mass:   76.031300
 Rotational Constants (cm-1):    0.0626    0.0843    0.2425
 Rotational Constants (GHz) :    1.8753    2.5274    7.2686
 Rotational temperatures (K):    0.0900    0.1213    0.3488
 Rotational Symmetry factor:  1
 Vibrational temperature (K): 
    172.12   712.03  1163.74  1343.41  1947.72
   2638.18  3459.27  4870.39  5273.46   413.70
   1137.93  1165.70  1582.32  2223.81  3471.69
   4841.43  5273.09   364.06   957.99  1147.21
   1603.40   581.79  1150.49  1261.83
 Number of trans. and rot. degrees of freedom:  6
 ZPVE                48.445 kcal/mol      0.077202 au.
 ZPVE corrected energy                 -229.305424 au.

 *****************************************************
 Temperature =     0.00 Kelvin, Pressure =   1.00 atm
 -----------------------------------------------------
 Molecular Partition Function and Molar Entropy:
                        q/V (M**-3)    S(kcal/mol*K)
 Electronic            1.000000E+00        0.000
 Translational         1.000000E+00        0.000
 Rotational            1.000000E+00        2.981
 Vibrational           1.000000E+00        0.000
 TOTAL                 1.000000E+00        2.981

 Thermal contributions to INTERNAL ENERGY:
 Electronic           0.000 kcal/mol      0.000000 au.
 Translational        0.000 kcal/mol      0.000000 au.
 Rotational           0.000 kcal/mol      0.000000 au.
 Vibrational         48.445 kcal/mol      0.077202 au.
 TOTAL               48.445 kcal/mol      0.077202 au.

 Thermal contributions to
 ENTHALPY            48.445 kcal/mol      0.077202 au.
 GIBBS FREE ENERGY   48.445 kcal/mol      0.077202 au.

 Sum of energy and thermal contributions
 INTERNAL ENERGY                       -229.305424 au.
 ENTHALPY                              -229.305424 au.
 GIBBS FREE ENERGY                     -229.305424 au.
 -----------------------------------------------------

 *****************************************************
 Temperature =   100.00 Kelvin, Pressure =   1.00 atm
 -----------------------------------------------------
 Molecular Partition Function and Molar Entropy:
                        q/V (M**-3)    S(kcal/mol*K)
 Electronic            1.000000E+00        0.000
 Translational         3.939934E+27       33.474
 Rotational            2.872163E+04       23.380
 Vibrational           1.705541-106        1.606
 TOTAL                 1.930013E-74       58.460

 Thermal contributions to INTERNAL ENERGY:
 Electronic           0.000 kcal/mol      0.000000 au.
 Translational        0.298 kcal/mol      0.000475 au.
 Rotational           0.298 kcal/mol      0.000475 au.
 Vibrational         48.557 kcal/mol      0.077381 au.
 TOTAL               49.153 kcal/mol      0.078331 au.

 Thermal contributions to
 ENTHALPY            49.352 kcal/mol      0.078647 au.
 GIBBS FREE ENERGY   43.506 kcal/mol      0.069331 au.

 Sum of energy and thermal contributions
 INTERNAL ENERGY                       -229.304295 au.
 ENTHALPY                              -229.303978 au.
 GIBBS FREE ENERGY                     -229.313294 au.
 -----------------------------------------------------

 *****************************************************
 Temperature =   273.15 Kelvin, Pressure =   1.00 atm
 -----------------------------------------------------
 Molecular Partition Function and Molar Entropy:
                        q/V (M**-3)    S(kcal/mol*K)
 Electronic            1.000000E+00        0.000
 Translational         1.778651E+28       38.466
 Rotational            1.296615E+05       26.376
 Vibrational           9.012235E-39        8.569
 TOTAL                 2.078424E-05       73.411

 Thermal contributions to INTERNAL ENERGY:
 Electronic           0.000 kcal/mol      0.000000 au.
 Translational        0.814 kcal/mol      0.001298 au.
 Rotational           0.814 kcal/mol      0.001298 au.
 Vibrational         49.892 kcal/mol      0.079507 au.
 TOTAL               51.520 kcal/mol      0.082102 au.

 Thermal contributions to
 ENTHALPY            52.063 kcal/mol      0.082967 au.
 GIBBS FREE ENERGY   32.011 kcal/mol      0.051012 au.

 Sum of energy and thermal contributions
 INTERNAL ENERGY                       -229.300523 au.
 ENTHALPY                              -229.299658 au.
 GIBBS FREE ENERGY                     -229.331613 au.
 -----------------------------------------------------

 *****************************************************
 Temperature =   298.15 Kelvin, Pressure =   1.00 atm
 -----------------------------------------------------
 Molecular Partition Function and Molar Entropy:
                        q/V (M**-3)    S(kcal/mol*K)
 Electronic            1.000000E+00        0.000
 Translational         2.028342E+28       38.901
 Rotational            1.478636E+05       26.637
 Vibrational           2.054021E-35        9.734
 TOTAL                 6.160379E-02       75.271

 Thermal contributions to INTERNAL ENERGY:
 Electronic           0.000 kcal/mol      0.000000 au.
 Translational        0.889 kcal/mol      0.001416 au.
 Rotational           0.889 kcal/mol      0.001416 au.
 Vibrational         50.224 kcal/mol      0.080037 au.
 TOTAL               52.002 kcal/mol      0.082870 au.

 Thermal contributions to
 ENTHALPY            52.594 kcal/mol      0.083814 au.
 GIBBS FREE ENERGY   30.152 kcal/mol      0.048050 au.

 Sum of energy and thermal contributions
 INTERNAL ENERGY                       -229.299756 au.
 ENTHALPY                              -229.298811 au.
 GIBBS FREE ENERGY                     -229.334575 au.
 -----------------------------------------------------

 *****************************************************
 Temperature =   323.15 Kelvin, Pressure =   1.00 atm
 -----------------------------------------------------
 Molecular Partition Function and Molar Entropy:
                        q/V (M**-3)    S(kcal/mol*K)
 Electronic            1.000000E+00        0.000
 Translational         2.288733E+28       39.301
 Rotational            1.668458E+05       26.877
 Vibrational           1.481410E-32       10.914
 TOTAL                 5.656993E+01       77.092

 Thermal contributions to INTERNAL ENERGY:
 Electronic           0.000 kcal/mol      0.000000 au.
 Translational        0.963 kcal/mol      0.001535 au.
 Rotational           0.963 kcal/mol      0.001535 au.
 Vibrational         50.591 kcal/mol      0.080622 au.
 TOTAL               52.518 kcal/mol      0.083692 au.

 Thermal contributions to
 ENTHALPY            53.160 kcal/mol      0.084715 au.
 GIBBS FREE ENERGY   28.247 kcal/mol      0.045015 au.

 Sum of energy and thermal contributions
 INTERNAL ENERGY                       -229.298933 au.
 ENTHALPY                              -229.297910 au.
 GIBBS FREE ENERGY                     -229.337610 au.
 -----------------------------------------------------

 *****************************************************
 Temperature =   373.15 Kelvin, Pressure =   1.00 atm
 -----------------------------------------------------
 Molecular Partition Function and Molar Entropy:
                        q/V (M**-3)    S(kcal/mol*K)
 Electronic            1.000000E+00        0.000
 Translational         2.839972E+28       40.016
 Rotational            2.070305E+05       27.305
 Vibrational           6.167687E-28       13.299
 TOTAL                 3.626358E+06       80.620

 Thermal contributions to INTERNAL ENERGY:
 Electronic           0.000 kcal/mol      0.000000 au.
 Translational        1.112 kcal/mol      0.001773 au.
 Rotational           1.112 kcal/mol      0.001773 au.
 Vibrational         51.421 kcal/mol      0.081945 au.
 TOTAL               53.646 kcal/mol      0.085490 au.

 Thermal contributions to
 ENTHALPY            54.387 kcal/mol      0.086672 au.
 GIBBS FREE ENERGY   24.304 kcal/mol      0.038731 au.

 Sum of energy and thermal contributions
 INTERNAL ENERGY                       -229.297135 au.
 ENTHALPY                              -229.295954 au.
 GIBBS FREE ENERGY                     -229.343895 au.
 -----------------------------------------------------

 *****************************************************
 Temperature =   473.15 Kelvin, Pressure =   1.00 atm
 -----------------------------------------------------
 Molecular Partition Function and Molar Entropy:
                        q/V (M**-3)    S(kcal/mol*K)
 Electronic            1.000000E+00        0.000
 Translational         4.054966E+28       41.195
 Rotational            2.956020E+05       28.013
 Vibrational           1.840163E-21       18.025
 TOTAL                 2.205723E+13       87.234

 Thermal contributions to INTERNAL ENERGY:
 Electronic           0.000 kcal/mol      0.000000 au.
 Translational        1.410 kcal/mol      0.002248 au.
 Rotational           1.410 kcal/mol      0.002248 au.
 Vibrational         53.420 kcal/mol      0.085130 au.
 TOTAL               56.241 kcal/mol      0.089626 au.

 Thermal contributions to
 ENTHALPY            57.181 kcal/mol      0.091124 au.
 GIBBS FREE ENERGY   15.906 kcal/mol      0.025348 au.

 Sum of energy and thermal contributions
 INTERNAL ENERGY                       -229.293000 au.
 ENTHALPY                              -229.291502 au.
 GIBBS FREE ENERGY                     -229.357277 au.
 -----------------------------------------------------
--


 ************************************
 *                                  *
 *       Polarizabilities           *
 *                                  *
 ************************************



       84.2634225581104062
       -0.0000000000000000     59.7327839864893519
       -0.0000000000000000     -0.0000000000000000     20.3161409029324140

++    Isotopic shifts:
      ----------------



 ****************************************
 *                                      *
 * Isotope shifted frequencies in cm-1  *
 *                                      *
 ****************************************


  Single substitutions:
  -----------------------

 Masses:
 =======
  13  12  12  12   1   1  12  12   1   1


 Frequencies:
 ============
                         1         2         3         4         5         6

            Freq.      i3.78     i2.60     i1.06     i0.13     i0.12     i0.09                                               


                         7         8         9        10        11        12

            Freq.     117.96    252.08    286.30    403.51    494.18    665.71                                               


                        13        14        15        16        17        18

            Freq.     788.77    791.76    798.71    802.92    809.39    876.89                                               


                        19        20        21        22        23        24

            Freq.     929.02   1096.68   1114.42   1353.45   1545.21   1833.01                                               


                        25        26        27        28        29        30

            Freq.    2379.90   2409.28   3364.96   3385.09   3645.97   3665.11                                               


 Masses:
 =======
  14  12  12  12   1   1  12  12   1   1


 Frequencies:
 ============
                         1         2         3         4         5         6

            Freq.      i3.75     i2.57     i1.05     i0.13     i0.12     i0.09                                               


                         7         8         9        10        11        12

            Freq.     116.44    251.23    285.20    402.75    493.51    665.59                                               


                        13        14        15        16        17        18

            Freq.     786.26    786.58    797.35    798.63    809.21    876.79                                               


                        19        20        21        22        23        24

            Freq.     924.65   1093.97   1114.42   1353.20   1544.83   1832.41                                               


                        25        26        27        28        29        30

            Freq.    2355.41   2408.99   3364.96   3385.09   3630.15   3665.11                                               


 Masses:
 =======
  12  12  13  12   1   1  12  12   1   1


 Frequencies:
 ============
                         1         2         3         4         5         6

            Freq.      i3.80     i2.62     i1.07     i0.13     i0.12     i0.09                                               


                         7         8         9        10        11        12

            Freq.     119.43    251.63    284.92    400.00    486.96    660.51                                               


                        13        14        15        16        17        18

            Freq.     787.56    796.43    799.36    807.53    809.33    875.13                                               


                        19        20        21        22        23        24

            Freq.     931.26   1097.21   1114.41   1353.05   1545.52   1833.48                                               


                        25        26        27        28        29        30

            Freq.    2353.08   2408.95   3364.96   3385.09   3663.44   3665.12                                               


 Masses:
 =======
  12  12  14  12   1   1  12  12   1   1


 Frequencies:
 ============
                         1         2         3         4         5         6

            Freq.      i3.80     i2.61     i1.06     i0.13     i0.12     i0.09                                               


                         7         8         9        10        11        12

            Freq.     119.24    250.28    282.41    396.04    479.86    655.89                                               


                        13        14        15        16        17        18

            Freq.     784.23    795.56    799.24    806.25    809.19    873.64                                               


                        19        20        21        22        23        24

            Freq.     928.91   1094.98   1114.40   1352.49   1545.43   1833.36                                               


                        25        26        27        28        29        30

            Freq.    2305.07   2408.79   3364.96   3385.09   3662.12   3665.12                                               


 Masses:
 =======
  12  12  12  12   2   1  12  12   1   1


 Frequencies:
 ============
                         1         2         3         4         5         6

            Freq.      i3.72     i2.57     i1.06     i0.13     i0.12     i0.09                                               


                         7         8         9        10        11        12

            Freq.     115.40    245.24    278.49    392.82    481.11    616.63                                               


                        13        14        15        16        17        18

            Freq.     642.64    680.88    790.84    798.47    809.36    877.01                                               


                        19        20        21        22        23        24

            Freq.     927.77   1095.57   1114.39   1353.26   1544.79   1831.64                                               


                        25        26        27        28        29        30

            Freq.    2225.90   2408.68   2883.12   3364.96   3385.10   3665.11                                               


 Masses:
 =======
  12  12  12  12   3   1  12  12   1   1


 Frequencies:
 ============
                         1         2         3         4         5         6

            Freq.      i3.64     i2.52     i1.04     i0.13     i0.12     i0.09                                               


                         7         8         9        10        11        12

            Freq.     111.74    238.22    270.83    382.35    465.11    562.01                                               


                        13        14        15        16        17        18

            Freq.     589.12    675.44    787.83    798.47    809.14    877.01                                               


                        19        20        21        22        23        24

            Freq.     921.51   1091.24   1114.38   1352.67   1543.48   1825.46                                               


                        25        26        27        28        29        30

            Freq.    1996.74   2408.61   2708.84   3364.96   3385.09   3665.11                                               


 Masses:
 =======
  12  12  12  12   1   1  13  12   1   1


 Frequencies:
 ============
                         1         2         3         4         5         6

            Freq.      i3.77     i2.62     i1.08     i0.13     i0.12     i0.09                                               


                         7         8         9        10        11        12

            Freq.     119.46    251.37    286.54    404.10    494.81    660.74                                               


                        13        14        15        16        17        18

            Freq.     783.58    797.34    799.55    808.84    809.52    873.02                                               


                        19        20        21        22        23        24

            Freq.     923.39   1089.74   1109.38   1352.21   1535.98   1801.93                                               


                        25        26        27        28        29        30

            Freq.    2403.37   2412.25   3358.56   3380.74   3664.98   3665.24                                               


 Masses:
 =======
  12  12  12  12   1   1  14  12   1   1


 Frequencies:
 ============
                         1         2         3         4         5         6

            Freq.      i3.74     i2.61     i1.07     i0.13     i0.12     i0.09                                               


                         7         8         9        10        11        12

            Freq.     119.29    249.84    285.58    403.87    494.74    656.09                                               


                        13        14        15        16        17        18

            Freq.     776.10    797.32    799.48    808.84    809.14    869.60                                               


                        19        20        21        22        23        24

            Freq.     913.60   1081.46   1105.25   1350.62   1526.94   1775.61                                               


                        25        26        27        28        29        30

            Freq.    2402.51   2411.79   3351.46   3378.74   3664.98   3665.24                                               


 Masses:
 =======
  12  12  12  12   1   1  12  12   2   1


 Frequencies:
 ============
                         1         2         3         4         5         6

            Freq.      i3.69     i2.60     i1.07     i0.13     i0.12     i0.09                                               


                         7         8         9        10        11        12

            Freq.     119.50    247.30    284.92    385.09    492.33    637.70                                               


                        13        14        15        16        17        18

            Freq.     773.41    776.49    797.35    802.75    807.63    808.99                                               


                        19        20        21        22        23        24

            Freq.     917.60    974.80   1038.18   1176.07   1483.21   1815.26                                               


                        25        26        27        28        29        30

            Freq.    2403.27   2411.84   2496.58   3375.16   3664.98   3665.24                                               


 Masses:
 =======
  12  12  12  12   1   1  12  12   3   1


 Frequencies:
 ============
                         1         2         3         4         5         6

            Freq.      i3.60     i2.58     i1.07     i0.13     i0.12     i0.09                                               


                         7         8         9        10        11        12

            Freq.     119.37    241.69    282.37    369.59    489.24    609.53                                               


                        13        14        15        16        17        18

            Freq.     741.48    744.59    797.35    801.36    804.62    808.91                                               


                        19        20        21        22        23        24

            Freq.     861.18    915.16   1024.66   1148.51   1475.66   1791.50                                               


                        25        26        27        28        29        30

            Freq.    2144.97   2404.71   2413.51   3375.13   3664.98   3665.24                                               



  Full substitutions:
  -----------------------

 Masses:
 =======
  12  12  12  12   2   2  12  12   2   2


 Frequencies:
 ============
                         1         2         3         4         5         6

            Freq.      i3.44     i2.47     i1.03     i0.13     i0.12     i0.09                                               


                         7         8         9        10        11        12

            Freq.     111.15    228.57    265.15    348.95    463.80    574.05                                               


                        13        14        15        16        17        18

            Freq.     628.03    632.32    648.79    664.79    734.43    762.18                                               


                        19        20        21        22        23        24

            Freq.     886.16    898.62    956.69    995.30   1306.42   1791.90                                               


                        25        26        27        28        29        30

            Freq.    2223.38   2227.17   2478.43   2511.25   2882.09   2884.31                                               


 Masses:
 =======
  12  12  12  12   3   3  12  12   3   3


 Frequencies:
 ============
                         1         2         3         4         5         6

            Freq.      i3.17     i2.35     i0.99     i0.12     i0.11     i0.08                                               


                         7         8         9        10        11        12

            Freq.     104.13    209.54    247.16    310.79    433.51    502.23                                               


                        13        14        15        16        17        18

            Freq.     558.84    565.60    594.69    619.31    689.08    716.32                                               


                        19        20        21        22        23        24

            Freq.     794.00    837.11    868.78    892.18   1235.66   1738.35                                               


                        25        26        27        28        29        30

            Freq.    1988.31   1998.85   2115.01   2173.43   2706.50   2711.47                                               


 Masses:
 =======
  13  13  13  13   1   1  13  13   1   1


 Frequencies:
 ============
                         1         2         3         4         5         6

            Freq.      i3.69     i2.54     i1.04     i0.13     i0.12     i0.09                                               


                         7         8         9        10        11        12

            Freq.     115.62    245.14    278.06    393.28    477.46    644.31                                               


                        13        14        15        16        17        18

            Freq.     764.51    789.21    792.35    800.40    801.13    864.90                                               


                        19        20        21        22        23        24

            Freq.     899.83   1066.71   1104.24   1348.60   1526.72   1767.09                                               


                        25        26        27        28        29        30

            Freq.    2318.00   2326.38   3354.89   3373.67   3644.41   3644.72                                               


 Masses:
 =======
  14  14  14  14   1   1  14  14   1   1


 Frequencies:
 ============
                         1         2         3         4         5         6

            Freq.      i3.58     i2.46     i1.00     i0.12     i0.11     i0.08                                               


                         7         8         9        10        11        12

            Freq.     112.00    237.95    269.48    383.01    461.74    624.42                                               


                        13        14        15        16        17        18

            Freq.     739.08    782.56    786.09    793.70    794.61    854.66                                               


                        19        20        21        22        23        24

            Freq.     869.46   1036.00   1095.79   1343.19   1511.39   1708.84                                               


                        25        26        27        28        29        30

            Freq.    2240.06   2248.19   3346.35   3364.03   3627.78   3628.13                                               


--


      The response parameters are written to the file RESP.
--- Stop Module: mclr at Sun Jul  7 16:10:07 2024 /rc=_RC_ALL_IS_WELL_ ---
*** files: reactant.freq.molden reactant.UnSym xmldump
    saved to directory /home/kenya/molcas_test/exercise_1
--- Module mclr spent 3 seconds ---

.##################.
.# Happy landing! #.
.##################.

    Timing: Wall=17.44 User=15.84 System=1.54
