[Molden Format]
[N_Atoms]
                   10
[Atoms] (AU)
C1          1      6          -4.17297316      1.98630104      0.00000000
C1          2      6           4.17297316      1.98630104      0.00000000
C2          3      6          -2.81669698      0.19709178      0.00000000
C2          4      6           2.81669698      0.19709178      0.00000000
H3          5      1           5.35792112      3.59399698      0.00000000
H3          6      1          -5.35792112      3.59399698      0.00000000
C4          7      6          -1.25521120     -2.01772294      0.00000000
C4          8      6           1.25521120     -2.01772294      0.00000000
H5          9      1          -2.23218267     -3.79911759      0.00000000
H5         10      1           2.23218267     -3.79911759      0.00000000
[Charge] (Mulliken)
  -1.0140246274926525     
  -1.0140246274926525     
  0.30399356115058040     
  0.30399356115058040     
  0.59521746467418701     
  0.59521746467418701     
 -0.34856743915877608     
 -0.34856743915877608     
  0.46338104082629683     
  0.46338104082629683     
[GTO] (AU)
   1
   s   6
  3.047524880E+03  1.834737132E-03
  4.573695180E+02  1.403732281E-02
  1.039486850E+02  6.884262227E-02
  2.921015530E+01  2.321844432E-01
  9.286662960E+00  4.679413484E-01
  3.163926960E+00  3.623119853E-01
   s   3
  7.868272350E+00 -1.193324198E-01
  1.881288540E+00 -1.608541517E-01
  5.442492580E-01  1.143456438E+00
   s   1
  1.687144782E-01  1.000000000E+00
   p   3
  7.868272350E+00  6.899906659E-02
  1.881288540E+00  3.164239610E-01
  5.442492580E-01  7.443082909E-01
   p   1
  1.687144782E-01  1.000000000E+00
   d   1
  8.000000000E-01  1.000000000E+00
 
   2
   s   6
  3.047524880E+03  1.834737132E-03
  4.573695180E+02  1.403732281E-02
  1.039486850E+02  6.884262227E-02
  2.921015530E+01  2.321844432E-01
  9.286662960E+00  4.679413484E-01
  3.163926960E+00  3.623119853E-01
   s   3
  7.868272350E+00 -1.193324198E-01
  1.881288540E+00 -1.608541517E-01
  5.442492580E-01  1.143456438E+00
   s   1
  1.687144782E-01  1.000000000E+00
   p   3
  7.868272350E+00  6.899906659E-02
  1.881288540E+00  3.164239610E-01
  5.442492580E-01  7.443082909E-01
   p   1
  1.687144782E-01  1.000000000E+00
   d   1
  8.000000000E-01  1.000000000E+00
 
   3
   s   6
  3.047524880E+03  1.834737132E-03
  4.573695180E+02  1.403732281E-02
  1.039486850E+02  6.884262227E-02
  2.921015530E+01  2.321844432E-01
  9.286662960E+00  4.679413484E-01
  3.163926960E+00  3.623119853E-01
   s   3
  7.868272350E+00 -1.193324198E-01
  1.881288540E+00 -1.608541517E-01
  5.442492580E-01  1.143456438E+00
   s   1
  1.687144782E-01  1.000000000E+00
   p   3
  7.868272350E+00  6.899906659E-02
  1.881288540E+00  3.164239610E-01
  5.442492580E-01  7.443082909E-01
   p   1
  1.687144782E-01  1.000000000E+00
   d   1
  8.000000000E-01  1.000000000E+00
 
   4
   s   6
  3.047524880E+03  1.834737132E-03
  4.573695180E+02  1.403732281E-02
  1.039486850E+02  6.884262227E-02
  2.921015530E+01  2.321844432E-01
  9.286662960E+00  4.679413484E-01
  3.163926960E+00  3.623119853E-01
   s   3
  7.868272350E+00 -1.193324198E-01
  1.881288540E+00 -1.608541517E-01
  5.442492580E-01  1.143456438E+00
   s   1
  1.687144782E-01  1.000000000E+00
   p   3
  7.868272350E+00  6.899906659E-02
  1.881288540E+00  3.164239610E-01
  5.442492580E-01  7.443082909E-01
   p   1
  1.687144782E-01  1.000000000E+00
   d   1
  8.000000000E-01  1.000000000E+00
 
   5
   s   3
  1.873113696E+01  3.349460434E-02
  2.825394365E+00  2.347269535E-01
  6.401216923E-01  8.137573261E-01
   s   1
  1.612777588E-01  1.000000000E+00
 
   6
   s   3
  1.873113696E+01  3.349460434E-02
  2.825394365E+00  2.347269535E-01
  6.401216923E-01  8.137573261E-01
   s   1
  1.612777588E-01  1.000000000E+00
 
   7
   s   6
  3.047524880E+03  1.834737132E-03
  4.573695180E+02  1.403732281E-02
  1.039486850E+02  6.884262227E-02
  2.921015530E+01  2.321844432E-01
  9.286662960E+00  4.679413484E-01
  3.163926960E+00  3.623119853E-01
   s   3
  7.868272350E+00 -1.193324198E-01
  1.881288540E+00 -1.608541517E-01
  5.442492580E-01  1.143456438E+00
   s   1
  1.687144782E-01  1.000000000E+00
   p   3
  7.868272350E+00  6.899906659E-02
  1.881288540E+00  3.164239610E-01
  5.442492580E-01  7.443082909E-01
   p   1
  1.687144782E-01  1.000000000E+00
   d   1
  8.000000000E-01  1.000000000E+00
 
   8
   s   6
  3.047524880E+03  1.834737132E-03
  4.573695180E+02  1.403732281E-02
  1.039486850E+02  6.884262227E-02
  2.921015530E+01  2.321844432E-01
  9.286662960E+00  4.679413484E-01
  3.163926960E+00  3.623119853E-01
   s   3
  7.868272350E+00 -1.193324198E-01
  1.881288540E+00 -1.608541517E-01
  5.442492580E-01  1.143456438E+00
   s   1
  1.687144782E-01  1.000000000E+00
   p   3
  7.868272350E+00  6.899906659E-02
  1.881288540E+00  3.164239610E-01
  5.442492580E-01  7.443082909E-01
   p   1
  1.687144782E-01  1.000000000E+00
   d   1
  8.000000000E-01  1.000000000E+00
 
   9
   s   3
  1.873113696E+01  3.349460434E-02
  2.825394365E+00  2.347269535E-01
  6.401216923E-01  8.137573261E-01
   s   1
  1.612777588E-01  1.000000000E+00
 
  10
   s   3
  1.873113696E+01  3.349460434E-02
  2.825394365E+00  2.347269535E-01
  6.401216923E-01  8.137573261E-01
   s   1
  1.612777588E-01  1.000000000E+00
 
[MO]
Sym=     1a1 
Ene=   -11.2710
Spin= Alpha
Occup=    2.00000
   1         0.00023658
   2         0.00024748
   3        -0.00319464
   4         0.00009609
   5        -0.00008761
   6         0.00000000
   7        -0.00142250
   8         0.00182767
   9         0.00000000
  10         0.00006577
  11         0.00005597
  12         0.00000493
  13        -0.00006285
  14         0.00000000
  15         0.00000000
  16         0.00023658
  17         0.00024748
  18        -0.00319464
  19        -0.00009609
  20        -0.00008761
  21         0.00000000
  22         0.00142250
  23         0.00182767
  24         0.00000000
  25         0.00006577
  26         0.00005597
  27         0.00000493
  28         0.00006285
  29         0.00000000
  30         0.00000000
  31         0.00832367
  32         0.00014174
  33         0.00514382
  34        -0.00002944
  35         0.00008159
  36         0.00000000
  37        -0.00088683
  38         0.00120875
  39         0.00000000
  40        -0.00025326
  41        -0.00055249
  42        -0.00015201
  43         0.00019606
  44         0.00000000
  45         0.00000000
  46         0.00832367
  47         0.00014174
  48         0.00514382
  49         0.00002944
  50         0.00008159
  51         0.00000000
  52         0.00088683
  53         0.00120875
  54         0.00000000
  55        -0.00025326
  56        -0.00055249
  57        -0.00015201
  58        -0.00019606
  59         0.00000000
  60         0.00000000
  61        -0.00011027
  62        -0.00068036
  63        -0.00011027
  64        -0.00068036
  65         0.70372044
  66         0.01928201
  67        -0.00509117
  68        -0.00031970
  69         0.00037020
  70         0.00000000
  71         0.00074756
  72        -0.00010636
  73         0.00000000
  74        -0.00120061
  75        -0.00148132
  76        -0.00178264
  77        -0.00008665
  78         0.00000000
  79         0.00000000
  80         0.70372044
  81         0.01928201
  82        -0.00509117
  83         0.00031970
  84         0.00037020
  85         0.00000000
  86        -0.00074756
  87        -0.00010636
  88         0.00000000
  89        -0.00120061
  90        -0.00148132
  91        -0.00178264
  92         0.00008665
  93         0.00000000
  94         0.00000000
  95        -0.00008023
  96         0.00136714
  97        -0.00008023
  98         0.00136714
Sym=     2a1 
Ene=   -11.2360
Spin= Alpha
Occup=    2.00000
   1         0.22873865
   2         0.00542984
   3         0.00053875
   4        -0.00025235
   5         0.00031642
   6         0.00000000
   7         0.00059984
   8        -0.00096537
   9         0.00000000
  10        -0.00059813
  11        -0.00036694
  12        -0.00081743
  13        -0.00035598
  14         0.00000000
  15         0.00000000
  16         0.22873865
  17         0.00542984
  18         0.00053875
  19         0.00025235
  20         0.00031642
  21         0.00000000
  22        -0.00059984
  23        -0.00096537
  24         0.00000000
  25        -0.00059813
  26        -0.00036694
  27        -0.00081743
  28         0.00035598
  29         0.00000000
  30         0.00000000
  31         0.66528656
  32         0.01784286
  33        -0.00547317
  34         0.00002746
  35        -0.00021368
  36         0.00000000
  37        -0.00002410
  38         0.00049274
  39         0.00000000
  40        -0.00134400
  41        -0.00076054
  42        -0.00203659
  43        -0.00106077
  44         0.00000000
  45         0.00000000
  46         0.66528656
  47         0.01784286
  48        -0.00547317
  49        -0.00002746
  50        -0.00021368
  51         0.00000000
  52         0.00002410
  53         0.00049274
  54         0.00000000
  55        -0.00134400
  56        -0.00076054
  57        -0.00203659
  58         0.00106077
  59         0.00000000
  60         0.00000000
  61        -0.00030131
  62         0.00063425
  63        -0.00030131
  64         0.00063425
  65        -0.00826617
  66        -0.00023077
  67         0.00185784
  68         0.00032648
  69        -0.00049913
  70         0.00000000
  71        -0.00048924
  72         0.00059265
  73         0.00000000
  74        -0.00032479
  75        -0.00061316
  76        -0.00016651
  77         0.00038657
  78         0.00000000
  79         0.00000000
  80        -0.00826617
  81        -0.00023077
  82         0.00185784
  83        -0.00032648
  84        -0.00049913
  85         0.00000000
  86         0.00048924
  87         0.00059265
  88         0.00000000
  89        -0.00032479
  90        -0.00061316
  91        -0.00016651
  92        -0.00038657
  93         0.00000000
  94         0.00000000
  95        -0.00008103
  96         0.00010654
  97        -0.00008103
  98         0.00010654
Sym=     3a1 
Ene=   -11.2300
Spin= Alpha
Occup=    2.00000
   1        -0.66570636
   2        -0.01845436
   3         0.01031985
   4        -0.00013645
   5         0.00016504
   6         0.00000000
   7         0.00193795
   8        -0.00261874
   9         0.00000000
  10         0.00141650
  11         0.00108225
  12         0.00187202
  13         0.00068165
  14         0.00000000
  15         0.00000000
  16        -0.66570636
  17        -0.01845436
  18         0.01031985
  19         0.00013645
  20         0.00016504
  21         0.00000000
  22        -0.00193795
  23        -0.00261874
  24         0.00000000
  25         0.00141650
  26         0.00108225
  27         0.00187202
  28        -0.00068165
  29         0.00000000
  30         0.00000000
  31         0.22975389
  32         0.00705465
  33        -0.00849307
  34        -0.00020248
  35         0.00019919
  36         0.00000000
  37         0.00218314
  38        -0.00271459
  39         0.00000000
  40        -0.00044552
  41        -0.00038712
  42        -0.00049512
  43        -0.00008073
  44         0.00000000
  45         0.00000000
  46         0.22975389
  47         0.00705465
  48        -0.00849307
  49         0.00020248
  50         0.00019919
  51         0.00000000
  52        -0.00218314
  53        -0.00271459
  54         0.00000000
  55        -0.00044552
  56        -0.00038712
  57        -0.00049512
  58         0.00008073
  59         0.00000000
  60         0.00000000
  61         0.00060628
  62        -0.00048737
  63         0.00060628
  64        -0.00048737
  65        -0.00264409
  66        -0.00014745
  67        -0.00001501
  68         0.00003573
  69        -0.00008502
  70         0.00000000
  71        -0.00011417
  72         0.00009699
  73         0.00000000
  74        -0.00005915
  75        -0.00009183
  76        -0.00005986
  77         0.00003558
  78         0.00000000
  79         0.00000000
  80        -0.00264409
  81        -0.00014745
  82        -0.00001501
  83        -0.00003573
  84        -0.00008502
  85         0.00000000
  86         0.00011417
  87         0.00009699
  88         0.00000000
  89        -0.00005915
  90        -0.00009183
  91        -0.00005986
  92        -0.00003558
  93         0.00000000
  94         0.00000000
  95        -0.00004006
  96         0.00006687
  97        -0.00004006
  98         0.00006687
Sym=     4a1 
Ene=    -1.1161
Spin= Alpha
Occup=    2.00000
   1        -0.04351795
   2         0.07655230
   3         0.10692805
   4         0.02845757
   5        -0.03572666
   6         0.00000000
   7         0.01973379
   8        -0.02556332
   9         0.00000000
  10         0.00034999
  11         0.00189102
  12        -0.00246061
  13        -0.00389565
  14         0.00000000
  15         0.00000000
  16        -0.04351795
  17         0.07655230
  18         0.10692805
  19        -0.02845757
  20        -0.03572666
  21         0.00000000
  22        -0.01973379
  23        -0.02556332
  24         0.00000000
  25         0.00034999
  26         0.00189102
  27        -0.00246061
  28         0.00389565
  29         0.00000000
  30         0.00000000
  31        -0.08502824
  32         0.16220968
  33         0.05973974
  34         0.02378917
  35        -0.02475798
  36         0.00000000
  37         0.03551651
  38        -0.04548044
  39         0.00000000
  40         0.00330769
  41         0.00926982
  42        -0.00657393
  43        -0.01415440
  44         0.00000000
  45         0.00000000
  46        -0.08502824
  47         0.16220968
  48         0.05973974
  49        -0.02378917
  50        -0.02475798
  51         0.00000000
  52        -0.03551651
  53        -0.04548044
  54         0.00000000
  55         0.00330769
  56         0.00926982
  57        -0.00657393
  58         0.01415440
  59         0.00000000
  60         0.00000000
  61         0.01451328
  62         0.00689983
  63         0.01451328
  64         0.00689983
  65        -0.13600013
  66         0.26353571
  67         0.15254570
  68         0.06578799
  69         0.02973783
  70         0.00000000
  71         0.00885356
  72        -0.01093437
  73         0.00000000
  74         0.01327402
  75         0.00408826
  76        -0.01108374
  77        -0.00000214
  78         0.00000000
  79         0.00000000
  80        -0.13600013
  81         0.26353571
  82         0.15254570
  83        -0.06578799
  84         0.02973783
  85         0.00000000
  86        -0.00885356
  87        -0.01093437
  88         0.00000000
  89         0.01327402
  90         0.00408826
  91        -0.01108374
  92         0.00000214
  93         0.00000000
  94         0.00000000
  95         0.06468840
  96         0.00374407
  97         0.06468840
  98         0.00374407
Sym=     5a1 
Ene=    -0.9987
Spin= Alpha
Occup=    2.00000
   1         0.11844428
   2        -0.21747007
   3        -0.18335745
   4        -0.05996707
   5         0.08032754
   6         0.00000000
   7         0.00076948
   8        -0.00272502
   9         0.00000000
  10        -0.00149085
  11        -0.00977027
  12         0.00929305
  13         0.01633771
  14         0.00000000
  15         0.00000000
  16         0.11844428
  17        -0.21747007
  18        -0.18335745
  19         0.05996707
  20         0.08032754
  21         0.00000000
  22        -0.00076948
  23        -0.00272502
  24         0.00000000
  25        -0.00149085
  26        -0.00977027
  27         0.00929305
  28        -0.01633771
  29         0.00000000
  30         0.00000000
  31         0.08874507
  32        -0.15781654
  33        -0.12948269
  34         0.09756595
  35        -0.12481198
  36         0.00000000
  37        -0.00583540
  38         0.01396940
  39         0.00000000
  40         0.00247349
  41        -0.00033067
  42         0.00527444
  43         0.00421153
  44         0.00000000
  45         0.00000000
  46         0.08874507
  47        -0.15781654
  48        -0.12948269
  49        -0.09756595
  50        -0.12481198
  51         0.00000000
  52         0.00583540
  53         0.01396940
  54         0.00000000
  55         0.00247349
  56        -0.00033067
  57         0.00527444
  58        -0.00421153
  59         0.00000000
  60         0.00000000
  61        -0.05178146
  62        -0.00044630
  63        -0.05178146
  64        -0.00044630
  65        -0.07352142
  66         0.13957512
  67         0.14134965
  68         0.08258243
  69        -0.03562728
  70         0.00000000
  71         0.00238583
  72         0.00163638
  73         0.00000000
  74         0.00759832
  75        -0.00224779
  76        -0.00607221
  77         0.00477725
  78         0.00000000
  79         0.00000000
  80        -0.07352142
  81         0.13957512
  82         0.14134965
  83        -0.08258243
  84        -0.03562728
  85         0.00000000
  86        -0.00238583
  87         0.00163638
  88         0.00000000
  89         0.00759832
  90        -0.00224779
  91        -0.00607221
  92        -0.00477725
  93         0.00000000
  94         0.00000000
  95         0.04614396
  96         0.01156127
  97         0.04614396
  98         0.01156127
Sym=     6a1 
Ene=    -0.7503
Spin= Alpha
Occup=    2.00000
   1        -0.06775844
   2         0.13771168
   3         0.09367778
   4        -0.09180837
   5         0.11849028
   6         0.00000000
   7        -0.05704677
   8         0.07038508
   9         0.00000000
  10         0.00425116
  11         0.01356394
  12        -0.00569907
  13        -0.01616841
  14         0.00000000
  15         0.00000000
  16        -0.06775844
  17         0.13771168
  18         0.09367778
  19         0.09180837
  20         0.11849028
  21         0.00000000
  22         0.05704677
  23         0.07038508
  24         0.00000000
  25         0.00425116
  26         0.01356394
  27        -0.00569907
  28         0.01616841
  29         0.00000000
  30         0.00000000
  31         0.06935247
  32        -0.14376490
  33        -0.06845218
  34        -0.06677289
  35         0.08046246
  36         0.00000000
  37        -0.03548390
  38         0.04974239
  39         0.00000000
  40        -0.00218939
  41        -0.00872025
  42         0.00564832
  43         0.01236089
  44         0.00000000
  45         0.00000000
  46         0.06935247
  47        -0.14376490
  48        -0.06845218
  49         0.06677289
  50         0.08046246
  51         0.00000000
  52         0.03548390
  53         0.04974239
  54         0.00000000
  55        -0.00218939
  56        -0.00872025
  57         0.00564832
  58        -0.01236089
  59         0.00000000
  60         0.00000000
  61         0.14684590
  62         0.06430092
  63         0.14684590
  64         0.06430092
  65        -0.02125210
  66         0.04116407
  67         0.04865637
  68         0.13101829
  69        -0.19357391
  70         0.00000000
  71         0.02940207
  72        -0.06503183
  73         0.00000000
  74         0.00598073
  75        -0.00334626
  76        -0.00061582
  77         0.00809723
  78         0.00000000
  79         0.00000000
  80        -0.02125210
  81         0.04116407
  82         0.04865637
  83        -0.13101829
  84        -0.19357391
  85         0.00000000
  86        -0.02940207
  87        -0.06503183
  88         0.00000000
  89         0.00598073
  90        -0.00334626
  91        -0.00061582
  92        -0.00809723
  93         0.00000000
  94         0.00000000
  95         0.07374305
  96         0.03608288
  97         0.07374305
  98         0.03608288
Sym=     7a1 
Ene=    -0.6829
Spin= Alpha
Occup=    2.00000
   1        -0.00912874
   2         0.02939119
   3        -0.07605064
   4        -0.12700981
   5         0.20065078
   6         0.00000000
   7        -0.07808000
   8         0.12016420
   9         0.00000000
  10         0.00652751
  11         0.00642031
  12         0.00011117
  13        -0.00763150
  14         0.00000000
  15         0.00000000
  16        -0.00912874
  17         0.02939119
  18        -0.07605064
  19         0.12700981
  20         0.20065078
  21         0.00000000
  22         0.07808000
  23         0.12016420
  24         0.00000000
  25         0.00652751
  26         0.00642031
  27         0.00011117
  28         0.00763150
  29         0.00000000
  30         0.00000000
  31         0.01103428
  32        -0.01551484
  33         0.07475221
  34         0.15234912
  35        -0.13736811
  36         0.00000000
  37        -0.03624690
  38         0.06803290
  39         0.00000000
  40         0.00315964
  41        -0.00079514
  42         0.00198665
  43        -0.00019403
  44         0.00000000
  45         0.00000000
  46         0.01103428
  47        -0.01551484
  48         0.07475221
  49        -0.15234912
  50        -0.13736811
  51         0.00000000
  52         0.03624690
  53         0.06803290
  54         0.00000000
  55         0.00315964
  56        -0.00079514
  57         0.00198665
  58         0.00019403
  59         0.00000000
  60         0.00000000
  61         0.14250931
  62         0.07177321
  63         0.14250931
  64         0.07177321
  65        -0.00175812
  66         0.00163101
  67         0.05635008
  68         0.02771073
  69         0.23326235
  70         0.00000000
  71         0.00125253
  72         0.11819995
  73         0.00000000
  74         0.00019310
  75        -0.00328567
  76        -0.00058301
  77        -0.00749251
  78         0.00000000
  79         0.00000000
  80        -0.00175812
  81         0.00163101
  82         0.05635008
  83        -0.02771073
  84         0.23326235
  85         0.00000000
  86        -0.00125253
  87         0.11819995
  88         0.00000000
  89         0.00019310
  90        -0.00328567
  91        -0.00058301
  92         0.00749251
  93         0.00000000
  94         0.00000000
  95        -0.12144449
  96        -0.06708504
  97        -0.12144449
  98        -0.06708504
Sym=     8a1 
Ene=    -0.6484
Spin= Alpha
Occup=    2.00000
   1        -0.00715775
   2         0.00687720
   3         0.07627154
   4         0.10310041
   5        -0.07126125
   6         0.00000000
   7         0.06446597
   8        -0.05060283
   9         0.00000000
  10         0.00218863
  11        -0.00765194
  12        -0.00109840
  13         0.00043444
  14         0.00000000
  15         0.00000000
  16        -0.00715775
  17         0.00687720
  18         0.07627154
  19        -0.10310041
  20        -0.07126125
  21         0.00000000
  22        -0.06446597
  23        -0.05060283
  24         0.00000000
  25         0.00218863
  26        -0.00765194
  27        -0.00109840
  28        -0.00043444
  29         0.00000000
  30         0.00000000
  31         0.01081804
  32        -0.02550976
  33        -0.08373504
  34        -0.02529074
  35         0.17190139
  36         0.00000000
  37         0.04513697
  38        -0.01400890
  39         0.00000000
  40         0.00491316
  41        -0.00582586
  42         0.00024180
  43        -0.00145958
  44         0.00000000
  45         0.00000000
  46         0.01081804
  47        -0.02550976
  48        -0.08373504
  49         0.02529074
  50         0.17190139
  51         0.00000000
  52        -0.04513697
  53        -0.01400890
  54         0.00000000
  55         0.00491316
  56        -0.00582586
  57         0.00024180
  58         0.00145958
  59         0.00000000
  60         0.00000000
  61        -0.06113259
  62        -0.03155192
  63        -0.06113259
  64        -0.03155192
  65        -0.01001271
  66         0.02473353
  67        -0.05644633
  68         0.37165620
  69         0.06093779
  70         0.00000000
  71         0.14066409
  72         0.01470860
  73         0.00000000
  74         0.00863555
  75        -0.02045908
  76         0.00151974
  77         0.00179309
  78         0.00000000
  79         0.00000000
  80        -0.01001271
  81         0.02473353
  82        -0.05644633
  83        -0.37165620
  84         0.06093779
  85         0.00000000
  86        -0.14066409
  87         0.01470860
  88         0.00000000
  89         0.00863555
  90        -0.02045908
  91         0.00151974
  92        -0.00179309
  93         0.00000000
  94         0.00000000
  95        -0.12581550
  96        -0.08857975
  97        -0.12581550
  98        -0.08857975
Sym=     9a1 
Ene=    -0.4000
Spin= Alpha
Occup=    2.00000
   1         0.00268741
   2        -0.00669872
   3         0.01496876
   4         0.21669508
   5         0.17062309
   6         0.00000000
   7         0.15977187
   8         0.10441174
   9         0.00000000
  10         0.01470656
  11        -0.01455321
  12        -0.00042058
  13        -0.00497296
  14         0.00000000
  15         0.00000000
  16         0.00268741
  17        -0.00669872
  18         0.01496876
  19        -0.21669508
  20         0.17062309
  21         0.00000000
  22        -0.15977187
  23         0.10441174
  24         0.00000000
  25         0.01470656
  26        -0.01455321
  27        -0.00042058
  28         0.00497296
  29         0.00000000
  30         0.00000000
  31        -0.00188092
  32         0.00152173
  33         0.00605937
  34         0.21771549
  35         0.15295914
  36         0.00000000
  37         0.16436034
  38         0.08986288
  39         0.00000000
  40        -0.01746765
  41         0.01628388
  42        -0.00033748
  43         0.00692258
  44         0.00000000
  45         0.00000000
  46        -0.00188092
  47         0.00152173
  48         0.00605937
  49        -0.21771549
  50         0.15295914
  51         0.00000000
  52        -0.16436034
  53         0.08986288
  54         0.00000000
  55        -0.01746765
  56         0.01628388
  57        -0.00033748
  58        -0.00692258
  59         0.00000000
  60         0.00000000
  61         0.00225268
  62         0.00672981
  63         0.00225268
  64         0.00672981
  65         0.01222206
  66        -0.02787320
  67        -0.04025002
  68        -0.10190382
  69        -0.04959267
  70         0.00000000
  71        -0.04307226
  72        -0.03690399
  73         0.00000000
  74        -0.01164413
  75         0.01593788
  76        -0.00046625
  77         0.00612569
  78         0.00000000
  79         0.00000000
  80         0.01222206
  81        -0.02787320
  82        -0.04025002
  83         0.10190382
  84        -0.04959267
  85         0.00000000
  86         0.04307226
  87        -0.03690399
  88         0.00000000
  89        -0.01164413
  90         0.01593788
  91        -0.00046625
  92        -0.00612569
  93         0.00000000
  94         0.00000000
  95         0.06741011
  96         0.07549802
  97         0.06741011
  98         0.07549802
Sym=    10a1 
Ene=     0.1933
Spin= Alpha
Occup=    0.00000
   1         0.00422587
   2        -0.02233049
   3         0.13712909
   4        -0.17560769
   5        -0.11448340
   6         0.00000000
   7        -0.29052841
   8        -0.32265268
   9         0.00000000
  10         0.01446084
  11        -0.01555336
  12        -0.00226468
  13        -0.00481381
  14         0.00000000
  15         0.00000000
  16         0.00422587
  17        -0.02233049
  18         0.13712909
  19         0.17560769
  20        -0.11448340
  21         0.00000000
  22         0.29052841
  23        -0.32265268
  24         0.00000000
  25         0.01446084
  26        -0.01555336
  27        -0.00226468
  28         0.00481381
  29         0.00000000
  30         0.00000000
  31        -0.00196901
  32        -0.02424702
  33         0.07358043
  34         0.15624002
  35         0.11093008
  36         0.00000000
  37         0.39222388
  38         0.04142874
  39         0.00000000
  40         0.01974867
  41        -0.02154663
  42        -0.00325385
  43        -0.00147136
  44         0.00000000
  45         0.00000000
  46        -0.00196901
  47        -0.02424702
  48         0.07358043
  49        -0.15624002
  50         0.11093008
  51         0.00000000
  52        -0.39222388
  53         0.04142874
  54         0.00000000
  55         0.01974867
  56        -0.02154663
  57        -0.00325385
  58         0.00147136
  59         0.00000000
  60         0.00000000
  61        -0.00003152
  62         0.03676453
  63        -0.00003152
  64         0.03676453
  65         0.04491004
  66        -0.07275582
  67        -0.73190732
  68         0.00927159
  69         0.06125314
  70         0.00000000
  71         0.25630317
  72         0.16315077
  73         0.00000000
  74        -0.01815509
  75         0.02309663
  76        -0.00031599
  77         0.01755738
  78         0.00000000
  79         0.00000000
  80         0.04491004
  81        -0.07275582
  82        -0.73190732
  83        -0.00927159
  84         0.06125314
  85         0.00000000
  86        -0.25630317
  87         0.16315077
  88         0.00000000
  89        -0.01815509
  90         0.02309663
  91        -0.00031599
  92        -0.01755738
  93         0.00000000
  94         0.00000000
  95         0.07355508
  96         0.78504467
  97         0.07355508
  98         0.78504467
Sym=    11a1 
Ene=     0.2705
Spin= Alpha
Occup=    0.00000
   1        -0.06718403
   2         0.13056128
   3        -0.71754944
   4        -0.08532965
   5         0.11759318
   6         0.00000000
   7        -1.28677534
   8         1.71165211
   9         0.00000000
  10        -0.00386175
  11        -0.01267631
  12         0.00756936
  13         0.01748548
  14         0.00000000
  15         0.00000000
  16        -0.06718403
  17         0.13056128
  18        -0.71754944
  19         0.08532965
  20         0.11759318
  21         0.00000000
  22         1.28677534