[Molden Format]
[Atoms] Angs
 C     1  6    -2.208242     1.051105     0.000000
 C     2  6     2.208242     1.051105     0.000000
 C     3  6    -1.490532     0.104296     0.000000
 C     4  6     1.490532     0.104296     0.000000
 H     5  1     2.835290     1.901861     0.000000
 H     6  1    -2.835290     1.901861     0.000000
 C     7  6    -0.664229    -1.067733     0.000000
 C     8  6     0.664229    -1.067733     0.000000
 H     9  1    -1.181220    -2.010407     0.000000
 H    10  1     1.181220    -2.010407     0.000000
