   This run of MOLCAS is using the pymolcas driver

                             OPE
                             OPE          NMOL  CASOP  ENMOLC A   SO
                 OPE        NMOLC        AS  OP EN  MO LC     AS  OP
                OPENM       OL CA        SO  PE NM  OL CA     SOP EN
                OP EN      MO   LC       AS  OP ENMOL  CASO   PENMOL
                OP  EN     MO   LC       AS  OP EN     MO     LC ASO
               OP   E  NMOL  C  AS       OP  EN MO     LC     AS  OP
               OP  E   NMO   LC AS        OPEN  MO     LCASOP EN   M
               O  PEN   MO  LCA  SO
            OPE   NMO   L   CAS    OP
        OPENMOL  CASOP     ENMOL   CASOPE
     OPENMOLCA   SOPENMOLCASOPEN   MOLCASOPE
    OPENMOLCAS   OP           EN   MOL    CAS
    OPENMOLCAS       OP  ENM        O     LCA
    OPENMOLCAS    OPEN  MOLCASO     P  E  NMO
    OPENMOLCAS     OP               E  N  MOL
    OPENMOLCA   SO           PENM   O  L  CAS    OPEN    MO    LCAS
    OPENMOLCA   SOP           ENM   O  L  CAS   OP  EN  MOLC  AS   O
    OPENMOLCA   SOPE           NM      O  LCA   S      OP  EN MO
    OPENMOLC                AS         O  PEN   M      OL  CA  SOPE
    OPENMO        LCASOPE  NMOL        C  ASO   P      ENMOLC     AS
    OPE     NMO      LCA  SO     P     E   NM   OL  CA SO  PE N   MO
          OPENMOLCA            SOPE   NMO        LCAS  O    P  ENMO
     OPENMOLCASOPENMOLCASOPENMOLCASOPENMOLCA
        OPENMOLCASOPENMOLCASOPENMOLCASOPE
            OPENMOLCASOPENMOLCASOPENM
               OPENMOLCASOPENMOLCA        version: 24.02
                   OPENMOLCASO
                       OPE                tag: 428-g03afa2e9a

 OpenMolcas is free software; you can redistribute it and/or modify it
 under the terms of the GNU Lesser General Public License version 2.1.
 OpenMolcas is distributed in the hope that it will be useful, but it
 is provided "as is" and without any express or implied warranties.
 For more details see the full text of the license in the file
 LICENSE or in <http://www.gnu.org/licenses/>.

                 Copyright (C) The OpenMolcas Authors
           For the author list and the recommended citation,
                   consult the file CONTRIBUTORS.md

           *************************************************
           * pymolcas version py2.28                       *
           *   build c4a6d18ded8cb6cad61d2372a9abd97c      *
           *   (after the EMIL interpreter by V. Veryazov) *
           *************************************************

configuration info
------------------
Host name: DESKTOP-ET1S6F4 (Linux)
C Compiler ID: GNU
C flags: -std=gnu99 -fopenmp
Fortran Compiler ID: GNU
Fortran flags: -fno-aggressive-loop-optimizations -cpp -fdefault-integer-8 -fopenmp
Definitions: _WARNING_WORKAROUND_;_MOLCAS_;_I8_;_LINUX_
Parallel: OFF (GA=OFF)


   ----------------------------------------------------------------------
  |
  |           Project: reactant
  |    Submitted from: /home/kenya/molcas_test/exercise_1
  |      Scratch area: /tmp/reactant
  |   Save outputs to: /home/kenya/molcas_test/exercise_1
  |            Molcas: /home/kenya/OpenMolcas/builds/gnu_dev_omp
  |
  | Scratch area is NOT empty
  |
  |    MOLCAS_DRIVER = /home/kenya/OpenMolcas/builds/gnu_dev_omp/pymolcas
  |    MOLCAS_NPROCS = 1
  |    MOLCAS_SOURCE = /home/kenya/OpenMolcas
  | MOLCAS_STRUCTURE = 0
  |
   ----------------------------------------------------------------------

++ ---------   Input file   ---------

&GATEWAY
Coord = reactant.Opt.xyz
  Basis = 6-31G*
  Group = Full
  NoCD

>>> COPY $CurrDir/reactant.RasOrb INPORB

>>> DO WHILE

  &SEWARD

  &RASSCF
    Inactive = 7 7 0 0
    RAS2   = 3 3 3 3
    nActEl = 12 0 0
    LUMORB

  &ALASKA

  &SLAPAF

>>> END DO

&MCKINLEY

-- ----------------------------------

*** symbolic link created: INPORB -> reactant.RasOrb
--- Start Module: gateway at Mon Jul  8 12:59:54 2024 ---

()()()()()()()()()()()()()()()()()()()()()()()()()()()()()()()()()()()()()()()()()()()()()()()()()()

                                              &GATEWAY

                                   only a single process is used
                       available to each process: 2.0 GB of memory, 1 thread
                                            pid: 483545
()()()()()()()()()()()()()()()()()()()()()()()()()()()()()()()()()()()()()()()()()()()()()()()()()()

      Found SYMMETRY generators: xz z

++    Symmetry information:
      ---------------------

                    --- Group Generators ---
                    Rotation around the y-axis  
                    Reflection in the xy-plane  

                    Character Table for C2v

                             E   C2(y) s(xy) s(yz)
                    a1       1     1     1     1  y
                    b1       1    -1     1    -1  x, xy, Rz
                    a2       1     1    -1    -1  xz, Ry, I
                    b2       1    -1    -1     1  z, yz, Rx
--


++    Basis set information:
      ----------------------


      Basis set label: C.6-31G**....

      Electronic valence basis set:
      ------------------
      Associated Effective Charge   6.000000 au
      Associated Actual Charge      6.000000 au
      Nuclear Model: Point charge

      Shell  nPrim  nBasis  Cartesian Spherical Contaminant
         s      10       3        X                  
         p       4       2        X                  
         d       1       1        X                  


      Basis set label: H.6-31G....

      Electronic valence basis set:
      ------------------
      Associated Effective Charge   1.000000 au
      Associated Actual Charge      1.000000 au
      Nuclear Model: Point charge

      Shell  nPrim  nBasis  Cartesian Spherical Contaminant
         s       4       2        X                  


      Basis set label: C.6-31G**....

      Electronic valence basis set:
      ------------------
      Associated Effective Charge   6.000000 au
      Associated Actual Charge      6.000000 au
      Nuclear Model: Point charge

      Shell  nPrim  nBasis  Cartesian Spherical Contaminant
         s      10       3        X                  
         p       4       2        X                  
         d       1       1        X                  


      Basis set label: H.6-31G....

      Electronic valence basis set:
      ------------------
      Associated Effective Charge   1.000000 au
      Associated Actual Charge      1.000000 au
      Nuclear Model: Point charge

      Shell  nPrim  nBasis  Cartesian Spherical Contaminant
         s       4       2        X                  
--


++    Molecular structure info:
      -------------------------

                    ************************************************ 
                    **** Cartesian Coordinates / Bohr, Angstrom **** 
                    ************************************************ 

     Center  Label                x              y              z                     x              y              z
        1      C1              -4.172973       1.986301       0.000000             -2.208242       1.051105       0.000000
        2      C1               4.172973       1.986301       0.000000              2.208242       1.051105       0.000000
        3      C2              -2.816697       0.197092       0.000000             -1.490532       0.104296       0.000000
        4      C2               2.816697       0.197092       0.000000              1.490532       0.104296       0.000000
        5      H3               5.357921       3.593997       0.000000              2.835290       1.901861       0.000000
        6      H3              -5.357921       3.593997       0.000000             -2.835290       1.901861       0.000000
        7      C4              -1.255211      -2.017723       0.000000             -0.664229      -1.067733       0.000000
        8      C4               1.255211      -2.017723       0.000000              0.664229      -1.067733       0.000000
        9      H5              -2.232183      -3.799118       0.000000             -1.181220      -2.010406       0.000000
       10      H5               2.232183      -3.799118       0.000000              1.181220      -2.010406       0.000000

                    *************************************** 
                    *    InterNuclear Distances / Bohr    * 
                    *************************************** 

               1 C1            2 C1            3 C2            4 C2            5 H3            6 H3    
    1 C1       0.000000
    2 C1       8.345946        0.000000
    3 C2       2.245163        7.215037        0.000000
    4 C2       7.215037        2.245163        5.633394        0.000000
    5 H3       9.665538        1.997195        8.852307        4.242262        0.000000
    6 H3       1.997195        9.665538        4.242262        8.852307       10.715842        0.000000
    7 C4       4.954346        6.745176        2.709916        4.635282        8.673230        6.951520
    8 C4       6.745176        4.954346        4.635282        2.709916        6.951520        8.673230
    9 H5       6.102273        8.631170        4.038731        6.439012       10.595651        8.026729
   10 H5       8.631170        6.102273        6.439012        4.038731        8.026729       10.595651

               7 C4            8 C4            9 H5           10 H5    
    7 C4       0.000000
    8 C4       2.510422        0.000000
    9 H5       2.031709        3.916029        0.000000
   10 H5       3.916029        2.031709        4.464365        0.000000

                    ******************************************* 
                    *    InterNuclear Distances / Angstrom    * 
                    ******************************************* 

               1 C1            2 C1            3 C2            4 C2            5 H3            6 H3    
    1 C1       0.000000
    2 C1       4.416485        0.000000
    3 C2       1.188089        3.818033        0.000000
    4 C2       3.818033        1.188089        2.981064        0.000000
    5 H3       5.114783        1.056870        4.684439        2.244908        0.000000
    6 H3       1.056870        5.114783        2.244908        4.684439        5.670579        0.000000
    7 C4       2.621727        3.569393        1.434026        2.452886        4.589676        3.678586
    8 C4       3.569393        2.621727        2.452886        1.434026        3.678586        4.589676
    9 H5       3.229184        4.567418        2.137204        3.407378        5.606977        4.247562
   10 H5       4.567418        3.229184        3.407378        2.137204        4.247562        5.606977

               7 C4            8 C4            9 H5           10 H5    
    7 C4       0.000000
    8 C4       1.328458        0.000000
    9 H5       1.075134        2.072273        0.000000
   10 H5       2.072273        1.075134        2.362440        0.000000

                    ************************************** 
                    *    Valence Bond Angles / Degree    * 
                    ************************************** 
                          Atom centers                 Phi
                      3 C2       1 C1       6 H3       179.23
                      4 C2       2 C1       5 H3       179.23
                      1 C1       3 C2       7 C4       178.02
                      2 C1       4 C2       8 C4       178.02
                      3 C2       7 C4       8 C4       125.18
                      3 C2       7 C4       9 H5       116.07
                      8 C4       7 C4       9 H5       118.74
                      4 C2       8 C4       7 C4       125.18
                      4 C2       8 C4      10 H5       116.07
                      7 C4       8 C4      10 H5       118.74

           ***************************************************************
           *              Valence Dihedral Angles / Degree               *
           ***************************************************************
                    Atom centers                       Phi1     Phi2     Theta 
           6 H3       1 C1       3 C2       7 C4        179.23   178.02  -180.00
           5 H3       2 C1       4 C2       8 C4        179.23   178.02  -180.00
           1 C1       3 C2       7 C4       8 C4        178.02   125.18  -180.00
           1 C1       3 C2       7 C4       9 H5        178.02   116.07    -0.00
           2 C1       4 C2       8 C4       7 C4        178.02   125.18  -180.00
           2 C1       4 C2       8 C4      10 H5        178.02   116.07    -0.00
           3 C2       7 C4       8 C4       4 C2        125.18   125.18    -0.00
           3 C2       7 C4       8 C4      10 H5        125.18   118.74  -180.00
           9 H5       7 C4       8 C4      10 H5        118.74   118.74    -0.00
           4 C2       8 C4       7 C4       9 H5        125.18   118.74  -180.00
--


            Nuclear Potential Energy            166.86298428 au

--- Stop Module: gateway at Mon Jul  8 12:59:54 2024 /rc=_RC_ALL_IS_WELL_ ---
*** files: xmldump
    saved to directory /home/kenya/molcas_test/exercise_1

>>> COPY /home/kenya/molcas_test/exercise_1/reactant.RasOrb INPORB

--- Start Module: seward at Mon Jul  8 12:59:54 2024 ---

()()()()()()()()()()()()()()()()()()()()()()()()()()()()()()()()()()()()()()()()()()()()()()()()()()

                                              &SEWARD

                                   only a single process is used
                       available to each process: 2.0 GB of memory, 1 thread
                                            pid: 483551
()()()()()()()()()()()()()()()()()()()()()()()()()()()()()()()()()()()()()()()()()()()()()()()()()()

               SEWARD will generate:
                  Multipole Moment integrals up to order  2
                  Kinetic Energy integrals
                  Nuclear Attraction integrals (point charge)
                  One-Electron Hamiltonian integrals
                  Velocity integrals
                  Orbital angular momentum around ( 0.0000  0.0469  0.0000 )
                  Velocity quadrupole around ( 0.0000  0.0469  0.0000 )
                  Two-Electron Repulsion integrals

                   Integrals are discarded if absolute value <: 1.00E-14
                   Integral cutoff threshold is set to       <: 1.00E-16

                    Unitary symmetry adaptation


            Nuclear Potential Energy            166.86298428 au


      Basis set specifications :
      Symmetry species         a1   b1   a2   b2 
      Basis functions           37   37   12   12


      Input file to MOLDEN was generated!

--- Stop Module: seward at Mon Jul  8 12:59:56 2024 /rc=_RC_ALL_IS_WELL_ ---
*** files: reactant.GssOrb reactant.guessorb.molden xmldump
    saved to directory /home/kenya/molcas_test/exercise_1
--- Module seward spent 2 seconds ---

--- Start Module: rasscf at Mon Jul  8 12:59:56 2024 ---

()()()()()()()()()()()()()()()()()()()()()()()()()()()()()()()()()()()()()()()()()()()()()()()()()()

                                              &RASSCF

                                   only a single process is used
                       available to each process: 2.0 GB of memory, 1 thread
                                            pid: 483590
()()()()()()()()()()()()()()()()()()()()()()()()()()()()()()()()()()()()()()()()()()()()()()()()()()

 ###############################################################################
 ###############################################################################
 ###                                                                         ###
 ###                                                                         ###
 ###    WARNING: Had to guess the spin.                                      ###
 ###                                                                         ###
 ###                                                                         ###
 ###############################################################################
 ###############################################################################
  Warning: no input and no reliable source
  for the spin multiplicity.
  Guess ISPIN=                    1

      Header of the ONEINT file:
      --------------------------
      
      Integrals generated by Gateway/Seward, Mon Jul  8 12:59:54 2024


      OrdInt status: non-squared


      Cartesian coordinates in Angstrom:
      -----------------------------------------------------
      No.  Label        X            Y            Z        
      -----------------------------------------------------
       1   C1        -2.20824230   1.05110525   0.00000000
       2   C2        -1.49053185   0.10429648   0.00000000
       3   H3         2.83528975   1.90186130   0.00000000
       4   C4        -0.66422916  -1.06773300   0.00000000
       5   H5        -1.18122020  -2.01040645   0.00000000
       6   C1         2.20824230   1.05110525   0.00000000
       7   C2         1.49053185   0.10429648   0.00000000
       8   H3        -2.83528975   1.90186130   0.00000000
       9   C4         0.66422916  -1.06773300   0.00000000
      10   H5         1.18122020  -2.01040645   0.00000000
      -----------------------------------------------------
      Nuclear repulsion energy =  166.86298428

++    Wave function specifications:
      -----------------------------

      Number of closed shell electrons          28
      Number of electrons in active shells      12
      Max number of holes in RAS1 space          0
      Max nr of electrons in RAS3 space          0
      Number of inactive orbitals               14
      Number of active orbitals                 12
      Number of secondary orbitals              72
      Spin quantum number                      0.0
      State symmetry                             1
--

++    Orbital specifications:
      -----------------------

      Symmetry species                           1   2   3   4
                                                a1  b1  a2  b2
      Frozen orbitals                            0   0   0   0
      Inactive orbitals                          7   7   0   0
      Active orbitals                            3   3   3   3
      RAS1 orbitals                              0   0   0   0
      RAS2 orbitals                              3   3   3   3
      RAS3 orbitals                              0   0   0   0
      Secondary orbitals                        27  27   9   9
      Deleted orbitals                           0   0   0   0
      Number of basis functions                 37  37  12  12
--

++    CI expansion specifications:
      ----------------------------

      Number of CSFs                         56928
      Number of determinants                107334
      Number of root(s) required                 1
      Root chosen for geometry opt.              1
      CI root used                               1
         
      highest root included in the CI            1
      max. size of the explicit Hamiltonian    200
--

++    Optimization specifications:
      ----------------------------

      RASSCF algorithm: Conventional
      Maximum number of macro iterations       200
      Maximum number of SX iterations          100
      Threshold for RASSCF energy            1.000E-08
      Threshold for max MO rotation          1.000E-01
      Threshold for max BLB element          1.000E-04
      Level shift parameter                  5.000E-01
      Make Quasi-Newton update
--

      The MO-coefficients are taken from the file:
      INPORB                                                                                                                                                                                                                                                          
      Title: RASSCF average (pseudo-natural) orbitals                                      

      Total molecular charge    0.00

      ************************************************************************************************************************
      *                                                                                                                      *
      *                                            Wave function control section                                             *
      *                                                                                                                      *
      ************************************************************************************************************************


                                         RASSCF iterations: Energy and convergence statistics
                                         ----------------------------------------------------

      Iter CI   SX   CI       RASSCF       Energy    max ROT     max BLB   max BLB  Level Ln srch  Step   QN   Walltime
          iter iter root      energy       change     param      element    value   shift minimum  type update hh:mm:ss
 Nr of preliminary CI iterations:   5
        1   1    5    1  -229.57065956    0.00E+00   7.69E-04    2   5 3  1.36E-04*  0.00   0.00    SX    NO    0:00:03
        2   2    4    1  -229.57066862   -9.06E-06* -6.74E-05    2   5 4 -4.09E-05   0.00   0.00    SX    NO    0:00:01
        3   1    4    1  -229.57066863   -4.19E-09   1.87E-05    8  17 1  6.73E-06   0.00   0.00    SX    NO    0:00:01
        4   7    5    1  -229.57067358   -4.96E-06*  5.12E-04    2   5 3 -9.10E-05   0.00   0.00    SX    NO    0:00:02
        5   3    4    1  -229.57067372   -1.43E-07* -2.18E-04    2   5 3 -3.05E-05   0.00   1.43    LS   YES    0:00:01
        6   3    4    1  -229.57067374   -1.47E-08* -5.74E-05    2   5 4  3.95E-05   0.00   1.02    QN   YES    0:00:01
        7   1    4    1  -229.57067374   -5.37E-09  -1.54E-05    8  17 1 -9.75E-06   0.00   1.03    QN   YES    0:00:01
      Convergence after  7 iterations
        8   1    4    1  -229.57067374   -4.18E-10  -1.54E-05    1   7 4  1.17E-06   0.00   1.03    QN   YES    0:00:01

      ************************************************************************************************************************
                                                      Wave function printout:
                       occupation of active orbitals, and spin coupling of open shells (u,d: Spin up or down)
      ************************************************************************************************************************

      Note: transformation to natural orbitals
      has been made, which may change the order of the CSFs.

      printout of CI-coefficients larger than  0.05 for root  1
      energy=    -229.570674
      conf/sym  111222333444     Coeff  Weight
         11436  222 000 200 220  -0.06213 0.00386
         11507  220 200 220 200  -0.12710 0.01615
         11508  220 200 2ud 200  -0.05217 0.00272
         11514  220 200 2ud ud0   0.08964 0.00804
         11528  220 200 200 220   0.92087 0.84799
         11550  220 200 ud0 2ud   0.06271 0.00393
         11567  220 200 uu0 d2d  -0.05657 0.00320
         11568  220 200 u0u d2d   0.05603 0.00314
         11597  220 200 000 222  -0.05422 0.00294
         11621  2ud 200 ud0 220  -0.05354 0.00287
         11804  202 200 200 220  -0.06121 0.00375
         12081  220 ud0 ud0 220  -0.05415 0.00293
         12113  220 ud0 200 u2d   0.05034 0.00253
         12172  2ud ud0 200 220  -0.06508 0.00424
         12632  2uu dd0 200 220   0.10329 0.01067
         12908  220 020 200 220  -0.06365 0.00405
         13460  200 220 200 220  -0.05723 0.00328
         18060  020 202 200 220  -0.05034 0.00253
         19936  22u d00 u00 22d  -0.06090 0.00371
         20434  2u0 2d0 u00 22d   0.05892 0.00347
         22042  u20 20d 2u0 2d0   0.05237 0.00274

      Natural orbitals and occupation numbers for root  1
      sym 1:   1.983622   1.942973   0.059000
      sym 2:   1.939817   0.058731   0.016062
      sym 3:   1.942284   0.093854   0.043946
      sym 4:   1.949951   1.914455   0.055304

      ************************************************************************************************************************
      *                                                                                                                      *
      *                                                    Final results                                                     *
      *                                                                                                                      *
      ************************************************************************************************************************


++    Wave function specifications:
      -----------------------------

      Number of closed shell electrons          28
      Number of electrons in active shells      12
      Max number of holes in RAS1 space          0
      Max nr of electrons in RAS3 space          0
      Number of inactive orbitals               14
      Number of active orbitals                 12
      Number of secondary orbitals              72
      Spin quantum number                      0.0
      State symmetry                             1
--

++    Orbital specifications:
      -----------------------

      Symmetry species                           1   2   3   4
                                                a1  b1  a2  b2
      Frozen orbitals                            0   0   0   0
      Inactive orbitals                          7   7   0   0
      Active orbitals                            3   3   3   3
      RAS1 orbitals                              0   0   0   0
      RAS2 orbitals                              3   3   3   3
      RAS3 orbitals                              0   0   0   0
      Secondary orbitals                        27  27   9   9
      Deleted orbitals                           0   0   0   0
      Number of basis functions                 37  37  12  12
--

++    CI expansion specifications:
      ----------------------------

      Number of CSFs                         56928
      Number of determinants                107334
      Number of root(s) required                 1
      CI root used                               1
      highest root included in the CI            1
      Root passed to geometry opt.               1
--

++    Final optimization conditions:
      ------------------------------

      Average CI energy                            -229.57067374
      RASSCF energy for state  1                   -229.57067374
      Super-CI energy                                -0.00000000
      RASSCF energy change                            0.00000000
      Max change in MO coefficients               1.903E-04
      Max non-diagonal density matrix element    -1.535E-05
      Maximum BLB matrix element                  1.174E-06
      (orbital pair   1,   7 in symmetry   4)
      Norm of electronic gradient            6.747E-06
--


      Final state energy(ies):
      ------------------------

::    RASSCF root number  1 Total energy:   -229.57067374

++    Molecular orbitals:
      -------------------

      Pseudonatural active orbitals and approximate occupation numbers




      Molecular orbitals for symmetry species 1: a1 


      Orbital                 1         2         3         4         5         6         7         8         9        10
      Energy           -11.2491  -11.2124  -11.2065   -1.0433   -0.9014   -0.7237   -0.6700   -0.7910   -0.0007    0.0233
      Occ. No.           2.0000    2.0000    2.0000    2.0000    2.0000    2.0000    2.0000    1.9836    1.9430    0.0590

     1 C1     1s         0.0003    0.3698   -0.9241   -0.1399    0.1264   -0.0746   -0.0104   -0.0076    0.0030    0.0004
     2 C1     2s         0.0004    0.0092   -0.0263    0.2507   -0.2348    0.1534    0.0364    0.0119   -0.0086    0.0022
     3 C1     *s        -0.0042    0.0005    0.0146    0.2494   -0.1959    0.0832   -0.1177    0.0927    0.0296    0.0373
     4 C1     2px        0.0002   -0.0004   -0.0003    0.0827   -0.0349   -0.1375   -0.2162    0.0093    0.3219   -0.5203
     5 C1     *px       -0.0019    0.0008    0.0028    0.0215    0.0207   -0.0785   -0.1346    0.0246    0.2236   -0.2482
     6 C1     2py       -0.0001    0.0004    0.0003   -0.1063    0.0564    0.2038    0.2766   -0.0126    0.2462   -0.3855
     7 C1     *py        0.0024   -0.0013   -0.0039   -0.0222   -0.0154    0.1201    0.1667   -0.0473    0.1383   -0.2125
     8 C1     *200       0.0001   -0.0006    0.0012    0.0008   -0.0022    0.0035    0.0041    0.0010    0.0106    0.0053
     9 C1     *110      -0.0001   -0.0005    0.0009   -0.0165    0.0204   -0.0194   -0.0096   -0.0006   -0.0062   -0.0018
    10 C1     *020       0.0000   -0.0004    0.0010    0.0060   -0.0069    0.0105    0.0066   -0.0016   -0.0107   -0.0051
    11 C1     *002       0.0000   -0.0008    0.0016   -0.0054    0.0059   -0.0032    0.0004   -0.0002   -0.0004   -0.0005
    12 C2     1s         0.0108    0.9235    0.3712   -0.1807   -0.0011    0.0828    0.0129    0.0252   -0.0020    0.0001
    13 C2     2s         0.0001    0.0253    0.0114    0.3340    0.0196   -0.1674   -0.0161   -0.0505    0.0012    0.0086
    14 C2     *s         0.0069   -0.0073   -0.0124    0.2054   -0.0128   -0.0576    0.1180   -0.1334    0.0012   -0.0337
    15 C2     2px       -0.0000   -0.0000   -0.0004   -0.0422    0.1670   -0.0383    0.1968   -0.0030    0.3283    0.5178
    16 C2     *px       -0.0011    0.0001    0.0031    0.0455    0.0284   -0.0394   -0.0704    0.0259    0.2284    0.2792
    17 C2     2py        0.0003   -0.0002    0.0003    0.0428   -0.2541    0.0249   -0.2420    0.0878    0.2407    0.3803
    18 C2     *py        0.0016    0.0005   -0.0038   -0.0633   -0.0266    0.0741    0.0820   -0.0273    0.1168    0.1725
    19 C2     *200      -0.0002   -0.0012   -0.0004    0.0002   -0.0001   -0.0046    0.0028    0.0064   -0.0113    0.0043
    20 C2     *110       0.0003   -0.0015   -0.0002   -0.0196   -0.0071    0.0164   -0.0003   -0.0059    0.0079    0.0000
    21 C2     *020      -0.0004   -0.0007   -0.0004    0.0080    0.0082   -0.0029   -0.0009   -0.0032    0.0105   -0.0056
    22 C2     *002      -0.0001   -0.0017   -0.0005   -0.0068   -0.0007    0.0037    0.0016    0.0004   -0.0003    0.0002
    23 H3     1s        -0.0002   -0.0005    0.0008    0.0527   -0.0779    0.2094    0.2106   -0.0022    0.0010   -0.0014
    24 H3     *s        -0.0009    0.0009   -0.0006    0.0062   -0.0094    0.1005    0.1101    0.0066    0.0091    0.0048
    25 C4     1s         0.9948   -0.0105   -0.0040   -0.0765   -0.1368   -0.0388   -0.0034   -0.1533    0.0178    0.0148
    26 C4     2s         0.0284   -0.0002   -0.0002    0.1478    0.2557    0.0707    0.0032    0.3053   -0.0406   -0.0402
    27 C4     *s        -0.0070    0.0024    0.0001    0.0441    0.2337    0.1074    0.0947    0.1475   -0.0738   -0.0253
    28 C4     2px        0.0007    0.0006    0.0002   -0.1115   -0.1974   -0.0406   -0.0282    0.5478   -0.0612   -0.0787
    29 C4     *px        0.0014   -0.0006   -0.0002   -0.0319   -0.1036   -0.0443   -0.0236    0.1674   -0.0215   -0.0512
    30 C4     2py        0.0006   -0.0007   -0.0001    0.0615   -0.0050   -0.3034    0.3162    0.0307   -0.0173   -0.0387
    31 C4     *py       -0.0002    0.0007    0.0002   -0.0142   -0.0043   -0.1074    0.1655    0.0029   -0.0271   -0.0389
    32 C4     *200      -0.0010   -0.0003   -0.0001    0.0026    0.0034    0.0018   -0.0001    0.0127   -0.0082   -0.0103
    33 C4     *110      -0.0001    0.0005    0.0001   -0.0049    0.0017    0.0111   -0.0112    0.0054    0.0074    0.0073
    34 C4     *020      -0.0013   -0.0005   -0.0001    0.0072    0.0104    0.0058   -0.0012   -0.0150    0.0101    0.0132
    35 C4     *002      -0.0015   -0.0001   -0.0001   -0.0038   -0.0074   -0.0018   -0.0007   -0.0051   -0.0002    0.0001
    36 H5     1s        -0.0002   -0.0001   -0.0001    0.0579    0.1585    0.1935   -0.1499   -0.0626    0.0450    0.0597
    37 H5     *s         0.0018    0.0001    0.0001    0.0175    0.0765    0.1161   -0.0857   -0.0948    0.0771    0.0651



      Molecular orbitals for symmetry species 2: b1 


      Orbital                 1         2         3         4         5         6         7         8         9        10
      Energy           -11.2475  -11.2124  -11.2065   -1.0272   -0.8545   -0.6986   -0.5594   -0.3803   -0.0000    0.0006
      Occ. No.           2.0000    2.0000    2.0000    2.0000    2.0000    2.0000    2.0000    1.9398    0.0587    0.0161

     1 C1     1s         0.0004    0.3691   -0.9244   -0.1584    0.1094   -0.0598    0.0285    0.0005   -0.0020   -0.0065
     2 C1     2s         0.0004    0.0091   -0.0263    0.2852   -0.2053    0.1345   -0.0475    0.0016    0.0069    0.0056
     3 C1     *s         0.0006    0.0003    0.0130    0.3456   -0.1889   -0.1126   -0.2062    0.0325   -0.0084   -0.3379
     4 C1     2px        0.0002   -0.0004   -0.0004    0.0908   -0.0123   -0.2396   -0.0963    0.3381   -0.5084    0.0660
     5 C1     *px       -0.0005    0.0010    0.0024    0.0382    0.0152   -0.1752   -0.0843    0.2288   -0.2644   -0.0632
     6 C1     2py       -0.0003    0.0005    0.0004   -0.1184    0.0185    0.3266    0.1118    0.2497   -0.3818    0.0405
     7 C1     *py        0.0003   -0.0013   -0.0032   -0.0511   -0.0185    0.2376    0.0997    0.1471   -0.1882    0.1665
     8 C1     *200       0.0000   -0.0006    0.0012    0.0011   -0.0024    0.0051    0.0017    0.0112    0.0052   -0.0027
     9 C1     *110      -0.0001   -0.0005    0.0009   -0.0196    0.0198   -0.0196    0.0014   -0.0060   -0.0014    0.0031
    10 C1     *020       0.0001   -0.0005    0.0009    0.0072   -0.0072    0.0116    0.0001   -0.0110   -0.0056    0.0008
    11 C1     *002      -0.0000   -0.0008    0.0016   -0.0061    0.0055   -0.0019    0.0019    0.0006   -0.0003   -0.0003
    12 C2     1s         0.0117    0.9239    0.3705   -0.1798   -0.0372    0.0751   -0.0567   -0.0040   -0.0008    0.0243
    13 C2     2s         0.0005    0.0255    0.0116    0.3274    0.0885   -0.1426    0.1234    0.0140    0.0033   -0.0540
    14 C2     *s         0.0068   -0.0090   -0.0130    0.2022    0.0429    0.0346    0.1766   -0.0012    0.0031   -0.0476
    15 C2     2px       -0.0001    0.0002   -0.0002   -0.0715    0.1664    0.0938    0.1958    0.3396    0.5248   -0.1698
    16 C2     *px        0.0028   -0.0010    0.0014    0.0956    0.0251   -0.1480   -0.0772    0.2213    0.2624   -0.4009
    17 C2     2py        0.0000   -0.0002    0.0003    0.0848   -0.2472   -0.1321   -0.2339    0.2508    0.3951   -0.0402
    18 C2     *py       -0.0030    0.0010   -0.0021   -0.1229   -0.0186    0.2018    0.0750    0.1056    0.2183    0.2815
    19 C2     *200      -0.0003   -0.0010   -0.0004   -0.0002    0.0017   -0.0011    0.0033   -0.0112    0.0055    0.0085
    20 C2     *110       0.0004   -0.0016   -0.0002   -0.0191   -0.0140    0.0120   -0.0084    0.0036   -0.0042   -0.0066
    21 C2     *020      -0.0005   -0.0006   -0.0003    0.0065    0.0097   -0.0022   -0.0000    0.0122   -0.0054   -0.0018
    22 C2     *002      -0.0001   -0.0016   -0.0004   -0.0071   -0.0020    0.0042   -0.0006    0.0006   -0.0010    0.0007
    23 H3     1s         0.0001    0.0004   -0.0008   -0.0623    0.0881   -0.2857   -0.0586   -0.0008    0.0030    0.0051
    24 H3     *s         0.0003   -0.0010    0.0008   -0.0146    0.0236   -0.1284   -0.0300   -0.0046    0.0057    0.0446
    25 C4     1s         0.9959   -0.0114   -0.0042   -0.0568   -0.1469   -0.0459    0.0232   -0.0125   -0.0249   -0.1770
    26 C4     2s         0.0287    0.0001   -0.0002    0.1156    0.2889    0.0841   -0.0509    0.0253    0.0880    0.9864
    27 C4     *s        -0.0211    0.0021    0.0013   -0.0232    0.2806    0.2524    0.0646    0.0854    0.1055    1.2180
    28 C4     2px       -0.0000    0.0003    0.0001   -0.0813   -0.2030   -0.0618    0.0264    0.0207    0.0897    1.1548
    29 C4     *px       -0.0020   -0.0021   -0.0013    0.0192   -0.0892   -0.0795   -0.0017    0.0672    0.0059    0.3608
    30 C4     2py        0.0006   -0.0005   -0.0001    0.0482    0.0313   -0.0615    0.4162    0.0043   -0.0081    0.0628
    31 C4     *py       -0.0049    0.0008    0.0014   -0.0640   -0.0044    0.0581    0.3437   -0.0371   -0.0154    0.3035
    32 C4     *200      -0.0007   -0.0005   -0.0001    0.0008   -0.0009    0.0007    0.0007   -0.0091   -0.0111   -0.0058
    33 C4     *110      -0.0003    0.0007    0.0001   -0.0067   -0.0006    0.0066   -0.0470    0.0065    0.0106    0.0150
    34 C4     *020      -0.0009   -0.0005   -0.0001    0.0061    0.0129    0.0060   -0.0055    0.0076    0.0051   -0.0881
    35 C4     *002      -0.0014   -0.0001   -0.0000   -0.0026   -0.0069   -0.0022    0.0005   -0.0001   -0.0005   -0.0184
    36 H5     1s        -0.0002   -0.0002   -0.0001    0.0380    0.1506    0.0917   -0.2859    0.0276    0.0387   -0.0507
    37 H5     *s         0.0009   -0.0004    0.0001   -0.0008    0.0484    0.0595   -0.1884    0.0354    0.0427   -0.0065



      Molecular orbitals for symmetry species 3: a2 


      Orbital                 1         2         3
      Energy            -0.4009    0.1576    0.4649
      Occ. No.           1.9423    0.0939    0.0439

     1 C1     2pz        0.3927   -0.4409    0.4875
     2 C1     *pz        0.2475   -0.2421    0.2414
     3 C1     *101       0.0135    0.0020   -0.0075
     4 C1     *011      -0.0183   -0.0010    0.0096
     5 C2     2pz        0.4202    0.2790   -0.6058
     6 C2     *pz        0.2436    0.1008   -0.3517
     7 C2     *101      -0.0116    0.0187    0.0055
     8 C2     *011       0.0127   -0.0247   -0.0056
     9 C4     2pz        0.0965    0.6494    0.6286
    10 C4     *pz        0.0659    0.3195    0.3256
    11 C4     *101      -0.0124    0.0049    0.0296
    12 C4     *011       0.0117    0.0112   -0.0061



      Molecular orbitals for symmetry species 4: b2 


      Orbital                 1         2         3
      Energy            -0.4654   -0.3192    0.3625
      Occ. No.           1.9500    1.9145    0.0553

     1 C1     2pz        0.3036   -0.3006   -0.6298
     2 C1     *pz        0.1838   -0.2200   -0.3171
     3 C1     *101       0.0117   -0.0062    0.0080
     4 C1     *011      -0.0155    0.0080   -0.0089
     5 C2     2pz        0.3633   -0.1881    0.6698
     6 C2     *pz        0.2008   -0.1517    0.3597
     7 C2     *101      -0.0034    0.0210    0.0039
     8 C2     *011       0.0047   -0.0259   -0.0071
     9 C4     2pz        0.3040    0.4768   -0.1556
    10 C4     *pz        0.1703    0.3601   -0.1516
    11 C4     *101       0.0084    0.0312   -0.0272
    12 C4     *011       0.0120   -0.0044    0.0129
--

      Von Neumann Entropy (Root   1) =  1.05870


      Mulliken population analysis for root number:  1
      -----------------------------------------------


++    Molecular charges:
      ------------------

      Mulliken charges per centre and basis function type
      ---------------------------------------------------

                C1      C2      H3      C4      H5    
      1s       1.9964  1.9965  0.5018  1.9965  0.5272
      2s       0.6616  0.6687  0.0000  0.6698  0.0000
      2px      0.6669  0.6721  0.0000  0.7589  0.0000
      2pz      0.5910  0.6030  0.0000  0.5723  0.0000
      2py      0.7240  0.7290  0.0000  0.7009  0.0000
      *s       0.5486  0.3944  0.2112  0.4583  0.2538
      *px      0.4398  0.2652  0.0000  0.1972  0.0000
      *110     0.0112  0.0097  0.0000  0.0189  0.0000
      *020     0.0364  0.0281  0.0000  0.0244  0.0000
      *002    -0.0181 -0.0170  0.0000 -0.0185  0.0000
      *200     0.0116  0.0078  0.0000  0.0215  0.0000
      *pz      0.4060  0.3738  0.0000  0.4228  0.0000
      *py      0.4153  0.1044  0.0000  0.3257  0.0000
      *101     0.0030  0.0049  0.0000  0.0081  0.0000
      *011     0.0052  0.0076  0.0000  0.0023  0.0000
      Total    6.4989  5.8481  0.7130  6.1591  0.7810

      N-E     -0.4989  0.1519  0.2870 -0.1591  0.2190

      Total electronic charge=   40.000000

      Total            charge=   -0.000000
--



      Expectation values of various properties for root number:  1
      -----------------------------------------------------------


++    Molecular properties:
      ---------------------

      Charge (e):
                      =   -0.0000
      Dipole Moment (Debye):
      Origin of the operator (Ang)=    0.0000    0.0000    0.0000
                   X=  0.0000E+00               Y= -1.5791E-01               Z=  0.0000E+00           Total=  1.5791E-01
      Quadrupole Moment (Debye*Ang):
      Origin of the operator (Ang)=    0.0000    0.0248    0.0000
                  XX= -3.0228E+01              XY=  0.0000E+00              XZ=  0.0000E+00              YY= -2.6902E+01
                  YZ=  0.0000E+00              ZZ= -3.6793E+01
      In traceless form (Debye*Ang)
                  XX=  1.6201E+00              XY=  0.0000E+00              XZ=  0.0000E+00              YY=  6.6083E+00
                  YZ=  0.0000E+00              ZZ= -8.2284E+00
--


      Input file to MOLDEN was generated!

      Average orbitals are written to the RASORB file
      Natural orbitals for root   1 are written to the RASORB.1 file
      Spin density orbitals for root   1 are written to the SPDORB.1 file

--- Stop Module: rasscf at Mon Jul  8 13:00:14 2024 /rc=_RC_ALL_IS_WELL_ ---
*** files: reactant.rasscf.molden reactant.RasOrb.1 reactant.RasOrb reactant.SpdOrb.1 xmldump
    saved to directory /home/kenya/molcas_test/exercise_1
--- Module rasscf spent 17 seconds ---

--- Start Module: alaska at Mon Jul  8 13:00:14 2024 ---

()()()()()()()()()()()()()()()()()()()()()()()()()()()()()()()()()()()()()()()()()()()()()()()()()()

                                              &ALASKA

                                   only a single process is used
                       available to each process: 2.0 GB of memory, 1 thread
                                            pid: 483791
()()()()()()()()()()()()()()()()()()()()()()()()()()()()()()()()()()()()()()()()()()()()()()()()()()


                     Threshold for contributions to the gradient: 1.000E-07


                    ********************************************
                    * Symmetry Adapted Cartesian Displacements *
                    ********************************************


           Irreducible representation : a1 
           Basis function(s) of irrep: y                                                                               

 Basis Label        Type   Center Phase
   1   C1           x         1     1      2    -1
   2   C1           y         1     1      2     1
   3   C2           x         3     1      4    -1
   4   C2           y         3     1      4     1
   5   H3           x         5     1      6    -1
   6   H3           y         5     1      6     1
   7   C4           x         7     1      8    -1
   8   C4           y         7     1      8     1
   9   H5           x         9     1     10    -1
  10   H5           y         9     1     10     1

           Irreducible representation : b1 
           Basis function(s) of irrep: x, xy, Rz                                                                       

 Basis Label        Type   Center Phase
  11   C1           x         1     1      2     1
  12   C1           y         1     1      2    -1
  13   C2           x         3     1      4     1
  14   C2           y         3     1      4    -1
  15   H3           x         5     1      6     1
  16   H3           y         5     1      6    -1
  17   C4           x         7     1      8     1
  18   C4           y         7     1      8    -1
  19   H5           x         9     1     10     1
  20   H5           y         9     1     10    -1

           Irreducible representation : a2 
           Basis function(s) of irrep: xz, Ry, I                                                                       

 Basis Label        Type   Center Phase
  21   C1           z         1     1      2    -1
  22   C2           z         3     1      4    -1
  23   H3           z         5     1      6    -1
  24   C4           z         7     1      8    -1
  25   H5           z         9     1     10    -1

           Irreducible representation : b2 
           Basis function(s) of irrep: z, yz, Rx                                                                       

 Basis Label        Type   Center Phase
  26   C1           z         1     1      2     1
  27   C2           z         3     1      4     1
  28   H3           z         5     1      6     1
  29   C4           z         7     1      8     1
  30   H5           z         9     1     10     1

                     No automatic utilization of translational and rotational invariance of the energy is employed.

 Conventional ERI gradients!

 **************************************************
 *                                                *
 *              Molecular gradients               *
 *                                                *
 **************************************************

  Irreducible representation: a1 
 ------------------------------------------------------------------------------------------
                              X                       Y                       Z
 ------------------------------------------------------------------------------------------
  C1                3.12462138929437E-02   -4.09326551139166E-02    0.00000000000000E+00
  C1               -3.12462138929437E-02   -4.09326551139166E-02    0.00000000000000E+00
  C2               -2.86478158922812E-02    3.77884748196982E-02    0.00000000000000E+00
  C2                2.86478158922812E-02    3.77884748196982E-02    0.00000000000000E+00
  H3                6.72266673851230E-04    6.52225412334673E-04    0.00000000000000E+00
  H3               -6.72266673851230E-04    6.52225412334673E-04    0.00000000000000E+00
  C4                4.06266173108740E-02    2.21212555522143E-03    0.00000000000000E+00
  C4               -4.06266173108740E-02    2.21212555522143E-03    0.00000000000000E+00
  H5               -1.50791634959235E-04    2.79829326608194E-04    0.00000000000000E+00
  H5                1.50791634959235E-04    2.79829326608194E-04    0.00000000000000E+00
 ------------------------------------------------------------------------------------------

--- Stop Module: alaska at Mon Jul  8 13:00:16 2024 /rc=_RC_ALL_IS_WELL_ ---
*** files: xmldump
    saved to directory /home/kenya/molcas_test/exercise_1
--- Module alaska spent 1 second ---

--- Start Module: slapaf at Mon Jul  8 13:00:16 2024 ---

()()()()()()()()()()()()()()()()()()()()()()()()()()()()()()()()()()()()()()()()()()()()()()()()()()

                                              &SLAPAF

                                   only a single process is used
                       available to each process: 2.0 GB of memory, 1 thread
                                            pid: 483819
()()()()()()()()()()()()()()()()()()()()()()()()()()()()()()()()()()()()()()()()()()()()()()()()()()



++       Slapaf input parameters:
         ------------------------

 Maximum number of iterations:              2000
 Convergence test a la Schlegel.
 Convergence criterion on gradient/para.<=: 3.0E-04
 Convergence criterion on step/parameter<=: 3.0E-04
 Convergence criterion on energy change <=: 0.0E+00
 Parameters for step-restricted optimization
 Maximum step length (initial seed):       3.00E-01

 -RFO activated with parameters:
   Maximum number of data points used in RFO:      5
 Line search is performed


 -Optimization for minimum.
  Optimization method: RS-RFO.

 -Initial Hessian guessed by Hessian Model Function (HMF).
  HMF augmented with weak interactions.

 -Hessian update method: Broyden-Fletcher-Goldfarb-Shanno
  Maximum number of points in Hessian update:  5

 -Relaxation will be done on non-redundant internal coordinates, based on
  force constant weighted redundant internal coordinates.

--

 ******************************************
 * Statistics of the internal coordinates *
 ******************************************
 Translations and Rotations:         0
 Bonds                     :         5
 Angles                    :         7
 Torsions                  :         6
 Out-of-plane angles       :         1


**********************************************************************************************************************
*                                    Energy Statistics for Geometry Optimization                                     *
**********************************************************************************************************************
                       Energy     Grad      Grad              Step                 Estimated   Geom       Hessian     
Iter      Energy       Change     Norm      Max    Element    Max     Element     Final Energy Update Update   Index  
  1   -229.57067374  0.00000000 0.114515 -0.066557 nrc001  -0.061608  nrc001     -229.57393549 RS-RFO  None      0    

       +----------------------------------+----------------------------------+
       +    Cartesian Displacements       +    Gradient in internals         +
       +  Value      Threshold Converged? +  Value      Threshold Converged? +
 +-----+----------------------------------+----------------------------------+
 + RMS + 3.3732E-02  1.2000E-03     No    + 3.8172E-02  3.0000E-04     No    +
 +-----+----------------------------------+----------------------------------+
 + Max + 4.2568E-02  1.8000E-03     No    + 6.6557E-02  4.5000E-04     No    +
 +-----+----------------------------------+----------------------------------+

 Convergence not reached yet!

*****************************************************************************************************************
*****************************************************************************************************************

++ Geometry section

********************************************************************************
  Geometrical information of the new structure
********************************************************************************


 *********************************************************
 * Nuclear coordinates for the next iteration / Bohr     *
 *********************************************************
  ATOM              X               Y               Z     
  C1              -4.205503        2.013757        0.000000
  C2              -2.831801        0.182567        0.000000
  H3               5.379691        3.626395        0.000000
  C4              -1.279507       -2.039671        0.000000
  H5              -2.249387       -3.822499        0.000000


 *********************************************************
 * Nuclear coordinates for the next iteration / Angstrom *
 *********************************************************
  ATOM              X               Y               Z     
  C1              -2.225456        1.065634        0.000000
  C2              -1.498525        0.096610        0.000000
  H3               2.846810        1.919006        0.000000
  C4              -0.677086       -1.079347        0.000000
  H5              -1.190324       -2.022779        0.000000


                    *************************************** 
                    *    InterNuclear Distances / Bohr    * 
                    *************************************** 

               1 C1            2 C1            3 C2            4 C2            5 H3    
    1 C1       0.000000
    2 C1       8.411006        0.000000
    3 C2       2.289173        7.271651        0.000000
    4 C2       7.271651        2.289173        5.663602        0.000000
    5 H3       9.719904        1.994823        8.904412        4.283887        0.000000
    6 H3       1.994823        9.719904        4.283887        8.904412       10.759381
    7 C4       4.999172        6.820235        2.710711        4.673457        8.743524
    8 C4       6.820235        4.999172        4.673457        2.710711        6.993983
    9 H5       6.155345        8.702154        4.047192        6.469855       10.662497
   10 H5       8.702154        6.155345        6.469855        4.047192        8.079902

               6 H3            7 C4            8 C4            9 H5           10 H5    
    6 H3       0.000000
    7 C4       6.993983        0.000000
    8 C4       8.743524        2.559015        0.000000
    9 H5       8.079902        2.029567        3.953678        0.000000
   10 H5      10.662497        3.953678        2.029567        4.498774        0.000000

                    ******************************************* 
                    *    InterNuclear Distances / Angstrom    * 
                    ******************************************* 

               1 C1            2 C1            3 C2            4 C2            5 H3    
    1 C1       0.000000
    2 C1       4.450913        0.000000
    3 C2       1.211378        3.847992        0.000000
    4 C2       3.847992        1.211378        2.997049        0.000000
    5 H3       5.143552        1.055615        4.712012        2.266936        0.000000
    6 H3       1.055615        5.143552        2.266936        4.712012        5.693619
    7 C4       2.645448        3.609113        1.434447        2.473087        4.626874
    8 C4       3.609113        2.645448        2.473087        1.434447        3.701056
    9 H5       3.257268        4.604981        2.141682        3.423700        5.642350
   10 H5       4.604981        3.257268        3.423700        2.141682        4.275700

               6 H3            7 C4            8 C4            9 H5           10 H5    
    6 H3       0.000000
    7 C4       3.701056        0.000000
    8 C4       4.626874        1.354172        0.000000
    9 H5       4.275700        1.074001        2.092196        0.000000
   10 H5       5.642350        2.092196        1.074001        2.380649        0.000000

                    ************************************** 
                    *    Valence Bond Angles / Degree    * 
                    ************************************** 
                          Atom centers                 Phi
                      3 C2       1 C1       6 H3       179.18
                      4 C2       2 C1       5 H3       179.18
                      1 C1       3 C2       7 C4       178.06
                      2 C1       4 C2       8 C4       178.06
                      3 C2       7 C4       8 C4       124.94
                      3 C2       7 C4       9 H5       116.52
                      8 C4       7 C4       9 H5       118.55
                      4 C2       8 C4       7 C4       124.94
                      4 C2       8 C4      10 H5       116.52
                      7 C4       8 C4      10 H5       118.55

           ***************************************************************
           *              Valence Dihedral Angles / Degree               *
           ***************************************************************
                    Atom centers                       Phi1     Phi2     Theta 
           6 H3       1 C1       3 C2       7 C4        179.18   178.06  -180.00
           5 H3       2 C1       4 C2       8 C4        179.18   178.06  -180.00
           1 C1       3 C2       7 C4       8 C4        178.06   124.94  -180.00
           1 C1       3 C2       7 C4       9 H5        178.06   116.52    -0.00
           2 C1       4 C2       8 C4       7 C4        178.06   124.94  -180.00
           2 C1       4 C2       8 C4      10 H5        178.06   116.52    -0.00
           3 C2       7 C4       8 C4       4 C2        124.94   124.94     0.00
           3 C2       7 C4       8 C4      10 H5        124.94   118.55  -180.00
           9 H5       7 C4       8 C4      10 H5        118.55   118.55    -0.00
           4 C2       8 C4       7 C4       9 H5        124.94   118.55  -180.00
--
--- Stop Module: slapaf at Mon Jul  8 13:00:16 2024 /rc=_RC_CONTINUE_LOOP_ ---
*** files: reactant.geo.molden reactant.structure reactant.Opt.xyz xmldump
    saved to directory /home/kenya/molcas_test/exercise_1

>>> END DO

--- Start Module: seward at Mon Jul  8 13:00:16 2024 ---
--- Stop Module: seward at Mon Jul  8 13:00:17 2024 /rc=_RC_ALL_IS_WELL_ ---
*** files: xmldump
    saved to directory /home/kenya/molcas_test/exercise_1
--- Module seward spent 1 second ---

--- Start Module: rasscf at Mon Jul  8 13:00:17 2024 ---
--- Stop Module: rasscf at Mon Jul  8 13:00:41 2024 /rc=_RC_ALL_IS_WELL_ ---
*** files: reactant.rasscf.molden reactant.RasOrb.1 reactant.RasOrb reactant.SpdOrb.1 xmldump
    saved to directory /home/kenya/molcas_test/exercise_1
--- Module rasscf spent 23 seconds ---

--- Start Module: alaska at Mon Jul  8 13:00:41 2024 ---
--- Stop Module: alaska at Mon Jul  8 13:00:42 2024 /rc=_RC_ALL_IS_WELL_ ---
*** files: xmldump
    saved to directory /home/kenya/molcas_test/exercise_1
--- Module alaska spent 1 second ---

--- Start Module: slapaf at Mon Jul  8 13:00:42 2024 ---

**********************************************************************************************************************
*                                    Energy Statistics for Geometry Optimization                                     *
**********************************************************************************************************************
                       Energy     Grad      Grad              Step                 Estimated   Geom       Hessian     
Iter      Energy       Change     Norm      Max    Element    Max     Element     Final Energy Update Update   Index  
  1   -229.57067374  0.00000000 0.114515 -0.066557 nrc001  -0.061608  nrc001     -229.57393549 RS-RFO  None      0    
  2   -229.57413470 -0.00346096 0.017719  0.010501 nrc002   0.017010  nrc002     -229.57425967 RS-RFO  BFGS      0    

       +----------------------------------+----------------------------------+
       +    Cartesian Displacements       +    Gradient in internals         +
       +  Value      Threshold Converged? +  Value      Threshold Converged? +
 +-----+----------------------------------+----------------------------------+
 + RMS + 7.2874E-03  1.2000E-03     No    + 5.9064E-03  3.0000E-04     No    +
 +-----+----------------------------------+----------------------------------+
 + Max + 9.9052E-03  1.8000E-03     No    + 1.0501E-02  4.5000E-04     No    +
 +-----+----------------------------------+----------------------------------+

 Convergence not reached yet!

*****************************************************************************************************************
*****************************************************************************************************************

++ Geometry section

********************************************************************************
  Geometrical information of the new structure
********************************************************************************


 *********************************************************
 * Nuclear coordinates for the next iteration / Bohr     *
 *********************************************************
  ATOM              X               Y               Z     
  C1              -4.208813        2.016072        0.000000
  C2              -2.838241        0.182285        0.000000
  H3               5.377933        3.633002        0.000000
  C4              -1.288940       -2.042693        0.000000
  H5              -2.254977       -3.828117        0.000000


 *********************************************************
 * Nuclear coordinates for the next iteration / Angstrom *
 *********************************************************
  ATOM              X               Y               Z     
  C1              -2.227208        1.066859        0.000000
  C2              -1.501932        0.096461        0.000000
  H3               2.845879        1.922502        0.000000
  C4              -0.682078       -1.080947        0.000000
  H5              -1.193282       -2.025752        0.000000

--
--- Stop Module: slapaf at Mon Jul  8 13:00:42 2024 /rc=_RC_CONTINUE_LOOP_ ---
*** files: reactant.geo.molden reactant.structure reactant.Opt.xyz xmldump
    saved to directory /home/kenya/molcas_test/exercise_1

>>> END DO

--- Start Module: seward at Mon Jul  8 13:00:42 2024 ---
--- Stop Module: seward at Mon Jul  8 13:00:45 2024 /rc=_RC_ALL_IS_WELL_ ---
*** files: xmldump
    saved to directory /home/kenya/molcas_test/exercise_1
--- Module seward spent 2 seconds ---

--- Start Module: rasscf at Mon Jul  8 13:00:45 2024 ---
--- Stop Module: rasscf at Mon Jul  8 13:01:03 2024 /rc=_RC_ALL_IS_WELL_ ---
*** files: reactant.rasscf.molden reactant.RasOrb.1 reactant.RasOrb reactant.SpdOrb.1 xmldump
    saved to directory /home/kenya/molcas_test/exercise_1
--- Module rasscf spent 18 seconds ---

--- Start Module: alaska at Mon Jul  8 13:01:03 2024 ---
--- Stop Module: alaska at Mon Jul  8 13:01:04 2024 /rc=_RC_ALL_IS_WELL_ ---
*** files: xmldump
    saved to directory /home/kenya/molcas_test/exercise_1
--- Module alaska spent 1 second ---

--- Start Module: slapaf at Mon Jul  8 13:01:04 2024 ---

**********************************************************************************************************************
*                                    Energy Statistics for Geometry Optimization                                     *
**********************************************************************************************************************
                       Energy     Grad      Grad              Step                 Estimated   Geom       Hessian     
Iter      Energy       Change     Norm      Max    Element    Max     Element     Final Energy Update Update   Index  
  1   -229.57067374  0.00000000 0.114515 -0.066557 nrc001  -0.061608  nrc001     -229.57393549 RS-RFO  None      0    
  2   -229.57413470 -0.00346096 0.017719  0.010501 nrc002   0.017010  nrc002     -229.57425967 RS-RFO  BFGS      0    
  3   -229.57428031 -0.00014561 0.004023  0.002184 nrc002   0.004355  nrc002     -229.57428764 RS-RFO  BFGS      0    

       +----------------------------------+----------------------------------+
       +    Cartesian Displacements       +    Gradient in internals         +
       +  Value      Threshold Converged? +  Value      Threshold Converged? +
 +-----+----------------------------------+----------------------------------+
 + RMS + 2.0416E-03  1.2000E-03     No    + 1.3409E-03  3.0000E-04     No    +
 +-----+----------------------------------+----------------------------------+
 + Max + 2.7075E-03  1.8000E-03     No    + 2.1844E-03  4.5000E-04     No    +
 +-----+----------------------------------+----------------------------------+

 Convergence not reached yet!

*****************************************************************************************************************
*****************************************************************************************************************

++ Geometry section

********************************************************************************
  Geometrical information of the new structure
********************************************************************************


 *********************************************************
 * Nuclear coordinates for the next iteration / Bohr     *
 *********************************************************
  ATOM              X               Y               Z     
  C1              -4.209790        2.015675        0.000000
  C2              -2.840433        0.182073        0.000000
  H3               5.375991        3.634889        0.000000
  C4              -1.291191       -2.042503        0.000000
  H5              -2.255515       -3.829585        0.000000


 *********************************************************
 * Nuclear coordinates for the next iteration / Angstrom *
 *********************************************************
  ATOM              X               Y               Z     
  C1              -2.227725        1.066649        0.000000
  C2              -1.503092        0.096349        0.000000
  H3               2.844852        1.923501        0.000000
  C4              -0.683269       -1.080846        0.000000
  H5              -1.193567       -2.026529        0.000000

--
--- Stop Module: slapaf at Mon Jul  8 13:01:04 2024 /rc=_RC_CONTINUE_LOOP_ ---
*** files: reactant.geo.molden reactant.structure reactant.Opt.xyz xmldump
    saved to directory /home/kenya/molcas_test/exercise_1

>>> END DO

--- Start Module: seward at Mon Jul  8 13:01:04 2024 ---
--- Stop Module: seward at Mon Jul  8 13:01:06 2024 /rc=_RC_ALL_IS_WELL_ ---
*** files: xmldump
    saved to directory /home/kenya/molcas_test/exercise_1
--- Module seward spent 1 second ---

--- Start Module: rasscf at Mon Jul  8 13:01:06 2024 ---
--- Stop Module: rasscf at Mon Jul  8 13:01:22 2024 /rc=_RC_ALL_IS_WELL_ ---
*** files: reactant.rasscf.molden reactant.RasOrb.1 reactant.RasOrb reactant.SpdOrb.1 xmldump
    saved to directory /home/kenya/molcas_test/exercise_1
--- Module rasscf spent 15 seconds ---

--- Start Module: alaska at Mon Jul  8 13:01:22 2024 ---
--- Stop Module: alaska at Mon Jul  8 13:01:23 2024 /rc=_RC_ALL_IS_WELL_ ---
*** files: xmldump
    saved to directory /home/kenya/molcas_test/exercise_1
--- Module alaska spent 1 second ---

--- Start Module: slapaf at Mon Jul  8 13:01:23 2024 ---

**********************************************************************************************************************
*                                    Energy Statistics for Geometry Optimization                                     *
**********************************************************************************************************************
                       Energy     Grad      Grad              Step                 Estimated   Geom       Hessian     
Iter      Energy       Change     Norm      Max    Element    Max     Element     Final Energy Update Update   Index  
  1   -229.57067374  0.00000000 0.114515 -0.066557 nrc001  -0.061608  nrc001     -229.57393549 RS-RFO  None      0    
  2   -229.57413470 -0.00346096 0.017719  0.010501 nrc002   0.017010  nrc002     -229.57425967 RS-RFO  BFGS      0    
  3   -229.57428031 -0.00014561 0.004023  0.002184 nrc002   0.004355  nrc002     -229.57428764 RS-RFO  BFGS      0    
  4   -229.57428814 -0.00000783 0.000483 -0.000284 nrc006   0.001011  nrc007     -229.57428856 RS-RFO  BFGS      0    

       +----------------------------------+----------------------------------+
       +    Cartesian Displacements       +    Gradient in internals         +
       +  Value      Threshold Converged? +  Value      Threshold Converged? +
 +-----+----------------------------------+----------------------------------+
 + RMS + 1.0302E-03  1.2000E-03     Yes   + 1.6111E-04  3.0000E-04     Yes   +
 +-----+----------------------------------+----------------------------------+
 + Max + 2.0796E-03  1.8000E-03     No    + 2.8409E-04  4.5000E-04     Yes   +
 +-----+----------------------------------+----------------------------------+

 Convergence not reached yet!

*****************************************************************************************************************
*****************************************************************************************************************

++ Geometry section

********************************************************************************
  Geometrical information of the new structure
********************************************************************************


 *********************************************************
 * Nuclear coordinates for the next iteration / Bohr     *
 *********************************************************
  ATOM              X               Y               Z     
  C1              -4.209992        2.015289        0.000000
  C2              -2.840950        0.181632        0.000000
  H3               5.374194        3.635935        0.000000
  C4              -1.291318       -2.042366        0.000000
  H5              -2.255104       -3.829941        0.000000


 *********************************************************
 * Nuclear coordinates for the next iteration / Angstrom *
 *********************************************************
  ATOM              X               Y               Z     
  C1              -2.227832        1.066445        0.000000
  C2              -1.503366        0.096115        0.000000
  H3               2.843901        1.924054        0.000000
  C4              -0.683336       -1.080773        0.000000
  H5              -1.193349       -2.026717        0.000000

--
--- Stop Module: slapaf at Mon Jul  8 13:01:23 2024 /rc=_RC_CONTINUE_LOOP_ ---
*** files: reactant.geo.molden reactant.structure reactant.Opt.xyz xmldump
    saved to directory /home/kenya/molcas_test/exercise_1

>>> END DO

--- Start Module: seward at Mon Jul  8 13:01:23 2024 ---
--- Stop Module: seward at Mon Jul  8 13:01:25 2024 /rc=_RC_ALL_IS_WELL_ ---
*** files: xmldump
    saved to directory /home/kenya/molcas_test/exercise_1
--- Module seward spent 1 second ---

--- Start Module: rasscf at Mon Jul  8 13:01:25 2024 ---
--- Stop Module: rasscf at Mon Jul  8 13:01:38 2024 /rc=_RC_ALL_IS_WELL_ ---
*** files: reactant.rasscf.molden reactant.RasOrb.1 reactant.RasOrb reactant.SpdOrb.1 xmldump
    saved to directory /home/kenya/molcas_test/exercise_1
--- Module rasscf spent 13 seconds ---

--- Start Module: alaska at Mon Jul  8 13:01:38 2024 ---
--- Stop Module: alaska at Mon Jul  8 13:01:41 2024 /rc=_RC_ALL_IS_WELL_ ---
*** files: xmldump
    saved to directory /home/kenya/molcas_test/exercise_1
--- Module alaska spent 2 seconds ---

--- Start Module: slapaf at Mon Jul  8 13:01:41 2024 ---

**********************************************************************************************************************
*                                    Energy Statistics for Geometry Optimization                                     *
**********************************************************************************************************************
                       Energy     Grad      Grad              Step                 Estimated   Geom       Hessian     
Iter      Energy       Change     Norm      Max    Element    Max     Element     Final Energy Update Update   Index  
  1   -229.57067374  0.00000000 0.114515 -0.066557 nrc001  -0.061608  nrc001     -229.57393549 RS-RFO  None      0    
  2   -229.57413470 -0.00346096 0.017719  0.010501 nrc002   0.017010  nrc002     -229.57425967 RS-RFO  BFGS      0    
  3   -229.57428031 -0.00014561 0.004023  0.002184 nrc002   0.004355  nrc002     -229.57428764 RS-RFO  BFGS      0    
  4   -229.57428814 -0.00000783 0.000483 -0.000284 nrc006   0.001011  nrc007     -229.57428856 RS-RFO  BFGS      0    
  5   -229.57428877 -0.00000063 0.000400 -0.000182 nrc006   0.002561  nrc007     -229.57428949 RS-RFO  BFGS      0    

       +----------------------------------+----------------------------------+
       +    Cartesian Displacements       +    Gradient in internals         +
       +  Value      Threshold Converged? +  Value      Threshold Converged? +
 +-----+----------------------------------+----------------------------------+
 + RMS + 3.3411E-03  1.2000E-03     No    + 1.3341E-04  3.0000E-04     Yes   +
 +-----+----------------------------------+----------------------------------+
 + Max + 7.1325E-03  1.8000E-03     No    + 1.8218E-04  4.5000E-04     Yes   +
 +-----+----------------------------------+----------------------------------+

 Convergence not reached yet!

*****************************************************************************************************************
*****************************************************************************************************************

++ Geometry section

********************************************************************************
  Geometrical information of the new structure
********************************************************************************


 *********************************************************
 * Nuclear coordinates for the next iteration / Bohr     *
 *********************************************************
  ATOM              X               Y               Z     
  C1              -4.209434        2.014694        0.000000
  C2              -2.841519        0.180308        0.000000
  H3               5.367951        3.639385        0.000000
  C4              -1.291305       -2.042786        0.000000
  H5              -2.254214       -3.831051        0.000000


 *********************************************************
 * Nuclear coordinates for the next iteration / Angstrom *
 *********************************************************
  ATOM              X               Y               Z     
  C1              -2.227537        1.066130        0.000000
  C2              -1.503667        0.095415        0.000000
  H3               2.840597        1.925879        0.000000
  C4              -0.683329       -1.080996        0.000000
  H5              -1.192879       -2.027305        0.000000

--
--- Stop Module: slapaf at Mon Jul  8 13:01:41 2024 /rc=_RC_CONTINUE_LOOP_ ---
*** files: reactant.geo.molden reactant.structure reactant.Opt.xyz xmldump
    saved to directory /home/kenya/molcas_test/exercise_1

>>> END DO

--- Start Module: seward at Mon Jul  8 13:01:41 2024 ---
--- Stop Module: seward at Mon Jul  8 13:01:42 2024 /rc=_RC_ALL_IS_WELL_ ---
*** files: xmldump
    saved to directory /home/kenya/molcas_test/exercise_1
--- Module seward spent 1 second ---

--- Start Module: rasscf at Mon Jul  8 13:01:42 2024 ---
--- Stop Module: rasscf at Mon Jul  8 13:02:02 2024 /rc=_RC_ALL_IS_WELL_ ---
*** files: reactant.rasscf.molden reactant.RasOrb.1 reactant.RasOrb reactant.SpdOrb.1 xmldump
    saved to directory /home/kenya/molcas_test/exercise_1
--- Module rasscf spent 20 seconds ---

--- Start Module: alaska at Mon Jul  8 13:02:02 2024 ---
--- Stop Module: alaska at Mon Jul  8 13:02:04 2024 /rc=_RC_ALL_IS_WELL_ ---
*** files: xmldump
    saved to directory /home/kenya/molcas_test/exercise_1
--- Module alaska spent 1 second ---

--- Start Module: slapaf at Mon Jul  8 13:02:04 2024 ---

**********************************************************************************************************************
*                                    Energy Statistics for Geometry Optimization                                     *
**********************************************************************************************************************
                       Energy     Grad      Grad              Step                 Estimated   Geom       Hessian     
Iter      Energy       Change     Norm      Max    Element    Max     Element     Final Energy Update Update   Index  
  1   -229.57067374  0.00000000 0.114515 -0.066557 nrc001  -0.061608  nrc001     -229.57393549 RS-RFO  None      0    
  2   -229.57413470 -0.00346096 0.017719  0.010501 nrc002   0.017010  nrc002     -229.57425967 RS-RFO  BFGS      0    
  3   -229.57428031 -0.00014561 0.004023  0.002184 nrc002   0.004355  nrc002     -229.57428764 RS-RFO  BFGS      0    
  4   -229.57428814 -0.00000783 0.000483 -0.000284 nrc006   0.001011  nrc007     -229.57428856 RS-RFO  BFGS      0    
  5   -229.57428877 -0.00000063 0.000400 -0.000182 nrc006   0.002561  nrc007     -229.57428949 RS-RFO  BFGS      0    
  6   -229.57428950 -0.00000073 0.000487 -0.000204 nrc003  -0.000741  nrc005     -229.57428960 RS-RFO  BFGS      0    

       +----------------------------------+----------------------------------+
       +    Cartesian Displacements       +    Gradient in internals         +
       +  Value      Threshold Converged? +  Value      Threshold Converged? +
 +-----+----------------------------------+----------------------------------+
 + RMS + 3.8190E-04  1.2000E-03     Yes   + 1.6235E-04  3.0000E-04     Yes   +
 +-----+----------------------------------+----------------------------------+
 + Max + 7.7153E-04  1.8000E-03     Yes   + 2.0388E-04  4.5000E-04     Yes   +
 +-----+----------------------------------+----------------------------------+

 Geometry is converged in   6 iterations to a Minimum Structure

*****************************************************************************************************************
*****************************************************************************************************************

++ Geometry section

********************************************************************************
  Geometrical information of the final structure
********************************************************************************

  NOTE: on convergence the final predicted structure will be printed here.
  This is not identical to the structure printed in the head of the output.

 *********************************************************
 * Nuclear coordinates of the final structure / Bohr     *
 *********************************************************
  ATOM              X               Y               Z     
  C1              -4.209657        2.014512        0.000000
  C2              -2.841496        0.180214        0.000000
  H3               5.367315        3.639822        0.000000
  C4              -1.291200       -2.042959        0.000000
  H5              -2.254242       -3.831039        0.000000


 *********************************************************
 * Nuclear coordinates of the final structure / Angstrom *
 *********************************************************
  ATOM              X               Y               Z     
  C1              -2.227655        1.066034        0.000000
  C2              -1.503655        0.095365        0.000000
  H3               2.840261        1.926111        0.000000
  C4              -0.683274       -1.081088        0.000000
  H5              -1.192894       -2.027299        0.000000


                    *************************************** 
                    *    InterNuclear Distances / Bohr    * 
                    *************************************** 

               1 C1            2 C1            3 C2            4 C2            5 H3    
    1 C1       0.000000
    2 C1       8.419314        0.000000
    3 C2       2.288343        7.285836        0.000000
    4 C2       7.285836        2.288343        5.682992        0.000000
    5 H3       9.713909        1.995446        8.908056        4.283532        0.000000
    6 H3       1.995446        9.713909        4.283532        8.908056       10.734630
    7 C4       4.998046        6.835386        2.710335        4.692726        8.753846
    8 C4       6.835386        4.998046        4.692726        2.710335        6.993477
    9 H5       6.163936        8.715071        4.054013        6.485114       10.672483
   10 H5       8.715071        6.163936        6.485114        4.054013        8.093515

               6 H3            7 C4            8 C4            9 H5           10 H5    
    6 H3       0.000000
    7 C4       6.993477        0.000000
    8 C4       8.753846        2.582400        0.000000
    9 H5       8.093515        2.030931        3.970817        0.000000
   10 H5      10.672483        3.970817        2.030931        4.508485        0.000000

                    ******************************************* 
                    *    InterNuclear Distances / Angstrom    * 
                    ******************************************* 

               1 C1            2 C1            3 C2            4 C2            5 H3    
    1 C1       0.000000
    2 C1       4.455309        0.000000
    3 C2       1.210939        3.855498        0.000000
[...]

 Thermal contributions to INTERNAL ENERGY:
 Electronic           0.000 kcal/mol      0.000000 au.
 Translational        0.963 kcal/mol      0.001535 au.
 Rotational           0.963 kcal/mol      0.001535 au.
 Vibrational         47.901 kcal/mol      0.076335 au.
 TOTAL               49.827 kcal/mol      0.079405 au.

 Thermal contributions to
 ENTHALPY            50.469 kcal/mol      0.080428 au.
 GIBBS FREE ENERGY   24.314 kcal/mol      0.038747 au.

 Sum of energy and thermal contributions
 INTERNAL ENERGY                       -229.494885 au.
 ENTHALPY                              -229.493862 au.
 GIBBS FREE ENERGY                     -229.535542 au.
 -----------------------------------------------------

 *****************************************************
 Temperature =   373.15 Kelvin, Pressure =   1.00 atm
 -----------------------------------------------------
 Molecular Partition Function and Molar Entropy:
                        q/V (M**-3)    S(kcal/mol*K)
 Electronic            1.000000E+00        0.000
 Translational         2.839972E+28       40.016
 Rotational            2.136886E+05       27.368
 Vibrational           1.582520E-25       17.530
 TOTAL                 9.603836E+08       84.914

 Thermal contributions to INTERNAL ENERGY:
 Electronic           0.000 kcal/mol      0.000000 au.
 Translational        1.112 kcal/mol      0.001773 au.
 Rotational           1.112 kcal/mol      0.001773 au.
 Vibrational         48.887 kcal/mol      0.077906 au.
 TOTAL               51.111 kcal/mol      0.081451 au.

 Thermal contributions to
 ENTHALPY            51.853 kcal/mol      0.082632 au.
 GIBBS FREE ENERGY   20.167 kcal/mol      0.032138 au.

 Sum of energy and thermal contributions
 INTERNAL ENERGY                       -229.492839 au.
 ENTHALPY                              -229.491657 au.
 GIBBS FREE ENERGY                     -229.542152 au.
 -----------------------------------------------------

 *****************************************************
 Temperature =   473.15 Kelvin, Pressure =   1.00 atm
 -----------------------------------------------------
 Molecular Partition Function and Molar Entropy:
                        q/V (M**-3)    S(kcal/mol*K)
 Electronic            1.000000E+00        0.000
 Translational         4.054966E+28       41.195
 Rotational            3.051086E+05       28.076
 Vibrational           2.379007E-19       22.906
 TOTAL                 2.943319E+15       92.178

 Thermal contributions to INTERNAL ENERGY:
 Electronic           0.000 kcal/mol      0.000000 au.
 Translational        1.410 kcal/mol      0.002248 au.
 Rotational           1.410 kcal/mol      0.002248 au.
 Vibrational         51.158 kcal/mol      0.081526 au.
 TOTAL               53.979 kcal/mol      0.086021 au.

 Thermal contributions to
 ENTHALPY            54.919 kcal/mol      0.087519 au.
 GIBBS FREE ENERGY   11.305 kcal/mol      0.018016 au.

 Sum of energy and thermal contributions
 INTERNAL ENERGY                       -229.488269 au.
 ENTHALPY                              -229.486771 au.
 GIBBS FREE ENERGY                     -229.556274 au.
 -----------------------------------------------------
--


 ************************************
 *                                  *
 *       Polarizabilities           *
 *                                  *
 ************************************



       70.2291496936902746
       -0.0000000000000000     57.6056105237259288
       -0.0000000000000000     -0.0000000000000000     20.1514234260340004

++    Isotopic shifts:
      ----------------



 ****************************************
 *                                      *
 * Isotope shifted frequencies in cm-1  *
 *                                      *
 ****************************************


  Single substitutions:
  -----------------------

 Masses:
 =======
  13  12  12  12   1   1  12  12   1   1


 Frequencies:
 ============
                         1         2         3         4         5         6

            Freq.      i7.12     i4.82     i2.16     i0.23     i0.19      0.21                                               


                         7         8         9        10        11        12

            Freq.     100.72    212.03    221.36    323.60    397.98    517.26                                               


                        13        14        15        16        17        18

            Freq.     527.48    546.27    550.25    566.57    731.26    790.54                                               


                        19        20        21        22        23        24

            Freq.     897.04   1004.20   1067.31   1315.78   1522.34   1658.50                                               


                        25        26        27        28        29        30

            Freq.    2230.31   2257.52   3362.32   3380.34   3632.28   3649.48                                               


 Masses:
 =======
  14  12  12  12   1   1  12  12   1   1


 Frequencies:
 ============
                         1         2         3         4         5         6

            Freq.      i7.07     i4.77     i2.13     i0.23     i0.19      0.21                                               


                         7         8         9        10        11        12

            Freq.      99.36    211.20    220.45    322.80    397.49    514.83                                               


                        13        14        15        16        17        18

            Freq.     526.73    543.01    550.21    566.56    729.26    790.54                                               


                        19        20        21        22        23        24

            Freq.     892.60   1004.20   1064.12   1315.31   1521.96   1657.85                                               


                        25        26        27        28        29        30

            Freq.    2207.72   2257.26   3362.32   3380.34   3617.97   3649.48                                               


 Masses:
 =======
  12  12  13  12   1   1  12  12   1   1


 Frequencies:
 ============
                         1         2         3         4         5         6

            Freq.      i7.17     i4.85     i2.17     i0.23     i0.19      0.21                                               


                         7         8         9        10        11        12

            Freq.     102.09    211.52    220.10    320.69    391.67    518.49                                               


                        13        14        15        16        17        18

            Freq.     528.79    549.43    550.58    563.30    729.62    789.41                                               


                        19        20        21        22        23        24

            Freq.     899.63   1004.19   1069.03   1315.82   1522.65   1659.03                                               


                        25        26        27        28        29        30

            Freq.    2203.58   2257.22   3362.32   3380.34   3648.45   3649.49                                               


 Masses:
 =======
  12  12  14  12   1   1  12  12   1   1


 Frequencies:
 ============
                         1         2         3         4         5         6

            Freq.      i7.17     i4.83     i2.16     i0.23     i0.19      0.21                                               


                         7         8         9        10        11        12

            Freq.     101.98    210.14    217.90    317.29    385.63    517.41                                               


                        13        14        15        16        17        18

            Freq.     528.71    549.19    550.53    560.67    726.46    788.48                                               


                        19        20        21        22        23        24

            Freq.     897.60   1004.19   1067.32   1315.40   1522.57   1658.89                                               


                        25        26        27        28        29        30

            Freq.    2157.42   2257.09   3362.32   3380.33   3647.62   3649.48                                               


 Masses:
 =======
  12  12  12  12   2   1  12  12   1   1


 Frequencies:
 ============
                         1         2         3         4         5         6

            Freq.      i7.00     i4.77     i2.14     i0.23     i0.19      0.21                                               


                         7         8         9        10        11        12

            Freq.      98.56    207.13    216.69    318.55    390.31    410.86                                               


                        13        14        15        16        17        18

            Freq.     432.94    523.86    550.17    563.39    730.31    790.30                                               


                        19        20        21        22        23        24

            Freq.     895.82   1004.19   1065.98   1315.44   1521.93   1657.51                                               


                        25        26        27        28        29        30

            Freq.    2127.90   2257.04   2815.35   3362.32   3380.34   3649.48                                               


 Masses:
 =======
  12  12  12  12   3   1  12  12   1   1


 Frequencies:
 ============
                         1         2         3         4         5         6

            Freq.      i6.87     i4.68     i2.10     i0.23     i0.19      0.21                                               


                         7         8         9        10        11        12

            Freq.      95.36    201.34    211.56    309.57    364.79    371.99                                               


                        13        14        15        16        17        18

            Freq.     409.36    523.81    550.16    563.16    727.66    790.24                                               


                        19        20        21        22        23        24

            Freq.     889.52   1004.19   1060.92   1314.40   1520.65   1654.37                                               


                        25        26        27        28        29        30

            Freq.    1947.17   2256.95   2590.78   3362.32   3380.34   3649.48                                               


 Masses:
 =======
  12  12  12  12   1   1  13  12   1   1


 Frequencies:
 ============
                         1         2         3         4         5         6

            Freq.      i7.10     i4.86     i2.18     i0.23     i0.19      0.21                                               


                         7         8         9        10        11        12

            Freq.     102.07    211.73    221.82    324.23    398.36    519.17                                               


                        13        14        15        16        17        18

            Freq.     528.88    549.69    550.68    561.71    725.00    787.06                                               


                        19        20        21        22        23        24

            Freq.     891.84   1000.56   1061.04   1313.06   1513.32   1633.41                                               


                        25        26        27        28        29        30

            Freq.    2251.91   2260.00   3355.85   3376.30   3649.41   3649.55                                               


 Masses:
 =======
  12  12  12  12   1   1  14  12   1   1


 Frequencies:
 ============
                         1         2         3         4         5         6

            Freq.      i7.04     i4.84     i2.18     i0.23     i0.19      0.21                                               


                         7         8         9        10        11        12

            Freq.     101.95    210.61    221.28    323.97    398.24    518.70                                               


                        13        14        15        16        17        18

            Freq.     528.86    549.69    550.68    557.41    716.89    784.07                                               


                        19        20        21        22        23        24

            Freq.     882.71    997.58   1052.59   1309.63   1503.53   1613.56                                               


                        25        26        27        28        29        30

            Freq.    2250.83   2259.48   3348.68   3374.56   3649.40   3649.55                                               


 Masses:
 =======
  12  12  12  12   1   1  12  12   2   1


 Frequencies:
 ============
                         1         2         3         4         5         6

            Freq.      i6.96     i4.82     i2.18     i0.23     i0.19      0.21                                               


                         7         8         9        10        11        12

            Freq.     102.10    209.18    220.73    312.29    396.89    518.07                                               


                        13        14        15        16        17        18

            Freq.     528.52    549.44    549.68    550.67    685.10    722.01                                               


                        19        20        21        22        23        24

            Freq.     884.08    932.38    948.21   1147.70   1451.81   1642.13                                               


                        25        26        27        28        29        30

            Freq.    2252.29   2260.18   2487.67   3371.42   3649.41   3649.55                                               


 Masses:
 =======
  12  12  12  12   1   1  12  12   3   1


 Frequencies:
 ============
                         1         2         3         4         5         6

            Freq.      i6.78     i4.78     i2.17     i0.23     i0.19      0.21                                               


                         7         8         9        10        11        12

            Freq.     102.00    205.48    219.13    302.21    395.16    512.73                                               


                        13        14        15        16        17        18

            Freq.     527.04    534.34    549.67    550.66    644.08    703.57                                               


                        19        20        21        22        23        24

            Freq.     815.57    885.69    920.23   1120.71   1443.38   1630.83                                               


                        25        26        27        28        29        30

            Freq.    2120.97   2254.37   2262.86   3371.40   3649.41   3649.55                                               



  Full substitutions:
  -----------------------

 Masses:
 =======
  12  12  12  12   2   2  12  12   2   2


 Frequencies:
 ============
                         1         2         3         4         5         6

            Freq.      i6.49     i4.59     i2.09     i0.23     i0.19      0.21                                               


                         7         8         9        10        11        12

            Freq.      94.92    195.18    207.87    290.05    380.76    407.20                                               


                        13        14        15        16        17        18

            Freq.     412.69    428.52    435.02    525.00    643.12    707.16                                               


                        19        20        21        22        23        24

            Freq.     789.52    854.33    925.14    973.34   1278.37   1614.74                                               


                        25        26        27        28        29        30

            Freq.    2124.49   2129.50   2475.65   2498.47   2814.77   2816.09                                               


 Masses:
 =======
  12  12  12  12   3   3  12  12   3   3


 Frequencies:
 ============
                         1         2         3         4         5         6

            Freq.      i5.97     i4.35     i2.00     i0.22     i0.18      0.20                                               


                         7         8         9        10        11        12

            Freq.      88.85    180.20    195.25    261.20    349.47    359.85                                               


                        13        14        15        16        17        18

            Freq.     371.30    382.10    409.38    489.86    590.06    677.20                                               


                        19        20        21        22        23        24

            Freq.     721.57    767.22    822.48    864.83   1206.77   1584.38                                               


                        25        26        27        28        29        30

            Freq.    1942.12   1946.36   2110.82   2140.55   2589.19   2592.82                                               


 Masses:
 =======
  13  13  13  13   1   1  13  13   1   1


 Frequencies:
 ============
                         1         2         3         4         5         6

            Freq.      i6.94     i4.70     i2.11     i0.22     i0.18      0.20                                               


                         7         8         9        10        11        12

            Freq.      98.78    205.97    214.77    314.36    383.53    511.75                                               


                        13        14        15        16        17        18

            Freq.     525.13    545.26    546.67    550.87    706.44    781.23                                               


                        19        20        21        22        23        24

            Freq.     869.15    996.86   1038.75   1307.23   1505.18   1603.86                                               


                        25        26        27        28        29        30

            Freq.    2170.68   2178.19   3352.27   3369.37   3631.31   3631.49                                               


 Masses:
 =======
  14  14  14  14   1   1  14  14   1   1


 Frequencies:
 ============
                         1         2         3         4         5         6

            Freq.      i6.74     i4.55     i2.04     i0.22     i0.18      0.20                                               


                         7         8         9        10        11        12

            Freq.      95.68    199.64    207.89    305.08    370.14    502.39                                               


                        13        14        15        16        17        18

            Freq.     521.96    539.21    541.40    543.29    682.52    773.26                                               


                        19        20        21        22        23        24

            Freq.     839.90    990.75   1008.82   1296.66   1490.94   1557.25                                               


                        25        26        27        28        29        30

            Freq.    2096.62   2103.88   3343.74   3360.08   3616.50   3616.70                                               


--


      The response parameters are written to the file RESP.
--- Stop Module: mclr at Mon Jul  8 13:15:41 2024 /rc=_RC_ALL_IS_WELL_ ---
*** files: reactant.freq.molden reactant.UnSym xmldump
    saved to directory /home/kenya/molcas_test/exercise_1
--- Module mclr spent 12 minutes 43 seconds ---

.##################.
.# Happy landing! #.
.##################.

    Timing: Wall=947.07 User=939.58 System=7.16
