[Molden Format]
[N_Atoms]
                   10
[Atoms] (AU)
C1          1      6          -4.17297316      1.98630105      0.00000000
C1          2      6           4.17297316      1.98630105      0.00000000
C2          3      6          -2.81669698      0.19709178      0.00000000
C2          4      6           2.81669698      0.19709178      0.00000000
H3          5      1           5.35792111      3.59399698      0.00000000
H3          6      1          -5.35792111      3.59399698      0.00000000
C4          7      6          -1.25521120     -2.01772294      0.00000000
C4          8      6           1.25521120     -2.01772294      0.00000000
H5          9      1          -2.23218267     -3.79911759      0.00000000
H5         10      1           2.23218267     -3.79911759      0.00000000
[Charge] (Mulliken)
  -1.0140145298804377     
  -1.0140145298804377     
  0.30398692131116256     
  0.30398692131116256     
  0.59521644937076856     
  0.59521644937076856     
 -0.34857142894416882     
 -0.34857142894416882     
  0.46338258814248490     
  0.46338258814248490     
[GTO] (AU)
   1
   s   6
  3.047524880E+03  1.834737132E-03
  4.573695180E+02  1.403732281E-02
  1.039486850E+02  6.884262227E-02
  2.921015530E+01  2.321844432E-01
  9.286662960E+00  4.679413484E-01
  3.163926960E+00  3.623119853E-01
   s   3
  7.868272350E+00 -1.193324198E-01
  1.881288540E+00 -1.608541517E-01
  5.442492580E-01  1.143456438E+00
   s   1
  1.687144782E-01  1.000000000E+00
   p   3
  7.868272350E+00  6.899906659E-02
  1.881288540E+00  3.164239610E-01
  5.442492580E-01  7.443082909E-01
   p   1
  1.687144782E-01  1.000000000E+00
   d   1
  8.000000000E-01  1.000000000E+00
 
   2
   s   6
  3.047524880E+03  1.834737132E-03
  4.573695180E+02  1.403732281E-02
  1.039486850E+02  6.884262227E-02
  2.921015530E+01  2.321844432E-01
  9.286662960E+00  4.679413484E-01
  3.163926960E+00  3.623119853E-01
   s   3
  7.868272350E+00 -1.193324198E-01
  1.881288540E+00 -1.608541517E-01
  5.442492580E-01  1.143456438E+00
   s   1
  1.687144782E-01  1.000000000E+00
   p   3
  7.868272350E+00  6.899906659E-02
  1.881288540E+00  3.164239610E-01
  5.442492580E-01  7.443082909E-01
   p   1
  1.687144782E-01  1.000000000E+00
   d   1
  8.000000000E-01  1.000000000E+00
 
   3
   s   6
  3.047524880E+03  1.834737132E-03
  4.573695180E+02  1.403732281E-02
  1.039486850E+02  6.884262227E-02
  2.921015530E+01  2.321844432E-01
  9.286662960E+00  4.679413484E-01
  3.163926960E+00  3.623119853E-01
   s   3
  7.868272350E+00 -1.193324198E-01
  1.881288540E+00 -1.608541517E-01
  5.442492580E-01  1.143456438E+00
   s   1
  1.687144782E-01  1.000000000E+00
   p   3
  7.868272350E+00  6.899906659E-02
  1.881288540E+00  3.164239610E-01
  5.442492580E-01  7.443082909E-01
   p   1
  1.687144782E-01  1.000000000E+00
   d   1
  8.000000000E-01  1.000000000E+00
 
   4
   s   6
  3.047524880E+03  1.834737132E-03
  4.573695180E+02  1.403732281E-02
  1.039486850E+02  6.884262227E-02
  2.921015530E+01  2.321844432E-01
  9.286662960E+00  4.679413484E-01
  3.163926960E+00  3.623119853E-01
   s   3
  7.868272350E+00 -1.193324198E-01
  1.881288540E+00 -1.608541517E-01
  5.442492580E-01  1.143456438E+00
   s   1
  1.687144782E-01  1.000000000E+00
   p   3
  7.868272350E+00  6.899906659E-02
  1.881288540E+00  3.164239610E-01
  5.442492580E-01  7.443082909E-01
   p   1
  1.687144782E-01  1.000000000E+00
   d   1
  8.000000000E-01  1.000000000E+00
 
   5
   s   3
  1.873113696E+01  3.349460434E-02
  2.825394365E+00  2.347269535E-01
  6.401216923E-01  8.137573261E-01
   s   1
  1.612777588E-01  1.000000000E+00
 
   6
   s   3
  1.873113696E+01  3.349460434E-02
  2.825394365E+00  2.347269535E-01
  6.401216923E-01  8.137573261E-01
   s   1
  1.612777588E-01  1.000000000E+00
 
   7
   s   6
  3.047524880E+03  1.834737132E-03
  4.573695180E+02  1.403732281E-02
  1.039486850E+02  6.884262227E-02
  2.921015530E+01  2.321844432E-01
  9.286662960E+00  4.679413484E-01
  3.163926960E+00  3.623119853E-01
   s   3
  7.868272350E+00 -1.193324198E-01
  1.881288540E+00 -1.608541517E-01
  5.442492580E-01  1.143456438E+00
   s   1
  1.687144782E-01  1.000000000E+00
   p   3
  7.868272350E+00  6.899906659E-02
  1.881288540E+00  3.164239610E-01
  5.442492580E-01  7.443082909E-01
   p   1
  1.687144782E-01  1.000000000E+00
   d   1
  8.000000000E-01  1.000000000E+00
 
   8
   s   6
  3.047524880E+03  1.834737132E-03
  4.573695180E+02  1.403732281E-02
  1.039486850E+02  6.884262227E-02
  2.921015530E+01  2.321844432E-01
  9.286662960E+00  4.679413484E-01
  3.163926960E+00  3.623119853E-01
   s   3
  7.868272350E+00 -1.193324198E-01
  1.881288540E+00 -1.608541517E-01
  5.442492580E-01  1.143456438E+00
   s   1
  1.687144782E-01  1.000000000E+00
   p   3
  7.868272350E+00  6.899906659E-02
  1.881288540E+00  3.164239610E-01
  5.442492580E-01  7.443082909E-01
   p   1
  1.687144782E-01  1.000000000E+00
   d   1
  8.000000000E-01  1.000000000E+00
 
   9
   s   3
  1.873113696E+01  3.349460434E-02
  2.825394365E+00  2.347269535E-01
  6.401216923E-01  8.137573261E-01
   s   1
  1.612777588E-01  1.000000000E+00
 
  10
   s   3
  1.873113696E+01  3.349460434E-02
  2.825394365E+00  2.347269535E-01
  6.401216923E-01  8.137573261E-01
   s   1
  1.612777588E-01  1.000000000E+00
 
[MO]
Sym=     1a1 
Ene=   -11.2710
Spin= Alpha
Occup=    2.00000
   1         0.00023650
   2         0.00024748
   3        -0.00319462
   4         0.00009609
   5        -0.00008761
   6         0.00000000
   7        -0.00142250
   8         0.00182767
   9         0.00000000
  10         0.00006577
  11         0.00005597
  12         0.00000493
  13        -0.00006285
  14         0.00000000
  15         0.00000000
  16         0.00023650
  17         0.00024748
  18        -0.00319462
  19        -0.00009609
  20        -0.00008761
  21         0.00000000
  22         0.00142250
  23         0.00182767
  24         0.00000000
  25         0.00006577
  26         0.00005597
  27         0.00000493
  28         0.00006285
  29         0.00000000
  30         0.00000000
  31         0.00832278
  32         0.00014172
  33         0.00514382
  34        -0.00002944
  35         0.00008159
  36         0.00000000
  37        -0.00088682
  38         0.00120874
  39         0.00000000
  40        -0.00025326
  41        -0.00055249
  42        -0.00015201
  43         0.00019606
  44         0.00000000
  45         0.00000000
  46         0.00832278
  47         0.00014172
  48         0.00514382
  49         0.00002944
  50         0.00008159
  51         0.00000000
  52         0.00088682
  53         0.00120874
  54         0.00000000
  55        -0.00025326
  56        -0.00055249
  57        -0.00015201
  58        -0.00019606
  59         0.00000000
  60         0.00000000
  61        -0.00011027
  62        -0.00068036
  63        -0.00011027
  64        -0.00068036
  65         0.70372046
  66         0.01928199
  67        -0.00509118
  68        -0.00031969
  69         0.00037020
  70         0.00000000
  71         0.00074756
  72        -0.00010637
  73         0.00000000
  74        -0.00120060
  75        -0.00148131
  76        -0.00178264
  77        -0.00008665
  78         0.00000000
  79         0.00000000
  80         0.70372046
  81         0.01928199
  82        -0.00509118
  83         0.00031969
  84         0.00037020
  85         0.00000000
  86        -0.00074756
  87        -0.00010637
  88         0.00000000
  89        -0.00120060
  90        -0.00148131
  91        -0.00178264
  92         0.00008665
  93         0.00000000
  94         0.00000000
  95        -0.00008023
  96         0.00136713
  97        -0.00008023
  98         0.00136713
Sym=     2a1 
Ene=   -11.2360
Spin= Alpha
Occup=    2.00000
   1         0.22861907
   2         0.00542654
   3         0.00054057
   4        -0.00025237
   5         0.00031645
   6         0.00000000
   7         0.00060018
   8        -0.00096582
   9         0.00000000
  10        -0.00059787
  11        -0.00036675
  12        -0.00081710
  13        -0.00035586
  14         0.00000000
  15         0.00000000
  16         0.22861907
  17         0.00542654
  18         0.00054057
  19         0.00025237
  20         0.00031645
  21         0.00000000
  22        -0.00060018
  23        -0.00096582
  24         0.00000000
  25        -0.00059787
  26        -0.00036675
  27        -0.00081710
  28         0.00035586
  29         0.00000000
  30         0.00000000
  31         0.66532782
  32         0.01784412
  33        -0.00547468
  34         0.00002744
  35        -0.00021366
  36         0.00000000
  37        -0.00002373
  38         0.00049228
  39         0.00000000
  40        -0.00134408
  41        -0.00076062
  42        -0.00203668
  43        -0.00106078
  44         0.00000000
  45         0.00000000
  46         0.66532782
  47         0.01784412
  48        -0.00547468
  49        -0.00002744
  50        -0.00021366
  51         0.00000000
  52         0.00002373
  53         0.00049228
  54         0.00000000
  55        -0.00134408
  56        -0.00076062
  57        -0.00203668
  58         0.00106078
  59         0.00000000
  60         0.00000000
  61        -0.00030120
  62         0.00063416
  63        -0.00030120
  64         0.00063416
  65        -0.00826577
  66        -0.00023078
  67         0.00185785
  68         0.00032649
  69        -0.00049915
  70         0.00000000
  71        -0.00048927
  72         0.00059267
  73         0.00000000
  74        -0.00032480
  75        -0.00061318
  76        -0.00016652
  77         0.00038658
  78         0.00000000
  79         0.00000000
  80        -0.00826577
  81        -0.00023078
  82         0.00185785
  83        -0.00032649
  84        -0.00049915
  85         0.00000000
  86         0.00048927
  87         0.00059267
  88         0.00000000
  89        -0.00032480
  90        -0.00061318
  91        -0.00016652
  92        -0.00038658
  93         0.00000000
  94         0.00000000
  95        -0.00008103
  96         0.00010655
  97        -0.00008103
  98         0.00010655
Sym=     3a1 
Ene=   -11.2300
Spin= Alpha
Occup=    2.00000
   1        -0.66574743
   2        -0.01845536
   3         0.01031973
   4        -0.00013641
   5         0.00016499
   6         0.00000000
   7         0.00193784
   8        -0.00261856
   9         0.00000000
  10         0.00141661
  11         0.00108233
  12         0.00187217
  13         0.00068172
  14         0.00000000
  15         0.00000000
  16        -0.66574743
  17        -0.01845536
  18         0.01031973
  19         0.00013641
  20         0.00016499
  21         0.00000000
  22        -0.00193784
  23        -0.00261856
  24         0.00000000
  25         0.00141661
  26         0.00108233
  27         0.00187217
  28        -0.00068172
  29         0.00000000
  30         0.00000000
  31         0.22963440
  32         0.00705144
  33        -0.00849208
  34        -0.00020248
  35         0.00019922
  36         0.00000000
  37         0.00218314
  38        -0.00271466
  39         0.00000000
  40        -0.00044528
  41        -0.00038699
  42        -0.00049476
  43        -0.00008054
  44         0.00000000
  45         0.00000000
  46         0.22963440
  47         0.00705144
  48        -0.00849208
  49         0.00020248
  50         0.00019922
  51         0.00000000
  52        -0.00218314
  53        -0.00271466
  54         0.00000000
  55        -0.00044528
  56        -0.00038699
  57        -0.00049476
  58         0.00008054
  59         0.00000000
  60         0.00000000
  61         0.00060634
  62        -0.00048749
  63         0.00060634
  64        -0.00048749
  65        -0.00264239
  66        -0.00014740
  67        -0.00001534
  68         0.00003567
  69        -0.00008493
  70         0.00000000
  71        -0.00011409
  72         0.00009688
  73         0.00000000
  74        -0.00005909
  75        -0.00009172
  76        -0.00005983
  77         0.00003551
  78         0.00000000
  79         0.00000000
  80        -0.00264239
  81        -0.00014740
  82        -0.00001534
  83        -0.00003567
  84        -0.00008493
  85         0.00000000
  86         0.00011409
  87         0.00009688
  88         0.00000000
  89        -0.00005909
  90        -0.00009172
  91        -0.00005983
  92        -0.00003551
  93         0.00000000
  94         0.00000000
  95        -0.00004005
  96         0.00006685
  97        -0.00004005
  98         0.00006685
Sym=     4a1 
Ene=    -1.1161
Spin= Alpha
Occup=    2.00000
   1        -0.04351673
   2         0.07655001
   3         0.10692619
   4         0.02845695
   5        -0.03572572
   6         0.00000000
   7         0.01973380
   8        -0.02556331
   9         0.00000000
  10         0.00034998
  11         0.00189092
  12        -0.00246050
  13        -0.00389547
  14         0.00000000
  15         0.00000000
  16        -0.04351673
  17         0.07655001
  18         0.10692619
  19        -0.02845695
  20        -0.03572572
  21         0.00000000
  22        -0.01973380
  23        -0.02556331
  24         0.00000000
  25         0.00034998
  26         0.00189092
  27        -0.00246050
  28         0.00389547
  29         0.00000000
  30         0.00000000
  31        -0.08502730
  32         0.16220804
  33         0.05973830
  34         0.02379018
  35        -0.02475923
  36         0.00000000
  37         0.03551640
  38        -0.04548028
  39         0.00000000
  40         0.00330774
  41         0.00926980
  42        -0.00657388
  43        -0.01415437
  44         0.00000000
  45         0.00000000
  46        -0.08502730
  47         0.16220804
  48         0.05973830
  49        -0.02379018
  50        -0.02475923
  51         0.00000000
  52        -0.03551640
  53        -0.04548028
  54         0.00000000
  55         0.00330774
  56         0.00926980
  57        -0.00657388
  58         0.01415437
  59         0.00000000
  60         0.00000000
  61         0.01451280
  62         0.00689985
  63         0.01451280
  64         0.00689985
  65        -0.13600092
  66         0.26353745
  67         0.15254705
  68         0.06578917
  69         0.02973767
  70         0.00000000
  71         0.00885368
  72        -0.01093423
  73         0.00000000
  74         0.01327411
  75         0.00408818
  76        -0.01108385
  77        -0.00000209
  78         0.00000000
  79         0.00000000
  80        -0.13600092
  81         0.26353745
  82         0.15254705
  83        -0.06578917
  84         0.02973767
  85         0.00000000
  86        -0.00885368
  87        -0.01093423
  88         0.00000000
  89         0.01327411
  90         0.00408818
  91        -0.01108385
  92         0.00000209
  93         0.00000000
  94         0.00000000
  95         0.06468868
  96         0.00374408
  97         0.06468868
  98         0.00374408
Sym=     5a1 
Ene=    -0.9987
Spin= Alpha
Occup=    2.00000
   1         0.11844450
   2        -0.21747020
   3        -0.18335815
   4        -0.05996761
   5         0.08032789
   6         0.00000000
   7         0.00076911
   8        -0.00272473
   9         0.00000000
  10        -0.00149087
  11        -0.00977026
  12         0.00929303
  13         0.01633770
  14         0.00000000
  15         0.00000000
  16         0.11844450
  17        -0.21747020
  18        -0.18335815
  19         0.05996761
  20         0.08032789
  21         0.00000000
  22        -0.00076911
  23        -0.00272473
  24         0.00000000
  25        -0.00149087
  26        -0.00977026
  27         0.00929303
  28        -0.01633770
  29         0.00000000
  30         0.00000000
  31         0.08874620
  32        -0.15781880
  33        -0.12948380
  34         0.09756562
  35        -0.12481111
  36         0.00000000
  37        -0.00583580
  38         0.01397001
  39         0.00000000
  40         0.00247347
  41        -0.00033080
  42         0.00527453
  43         0.00421170
  44         0.00000000
  45         0.00000000
  46         0.08874620
  47        -0.15781880
  48        -0.12948380
  49        -0.09756562
  50        -0.12481111
  51         0.00000000
  52         0.00583580
  53         0.01397001
  54         0.00000000
  55         0.00247347
  56        -0.00033080
  57         0.00527453
  58        -0.00421170
  59         0.00000000
  60         0.00000000
  61        -0.05178131
  62        -0.00044630
  63        -0.05178131
  64        -0.00044630
  65        -0.07352009
  66         0.13957269
  67         0.14134809
  68         0.08258273
  69        -0.03562814
  70         0.00000000
  71         0.00238598
  72         0.00163636
  73         0.00000000
  74         0.00759821
  75        -0.00224789
  76        -0.00607212
  77         0.00477728
  78         0.00000000
  79         0.00000000
  80        -0.07352009
  81         0.13957269
  82         0.14134809
  83        -0.08258273
  84        -0.03562814
  85         0.00000000
  86        -0.00238598
  87         0.00163636
  88         0.00000000
  89         0.00759821
  90        -0.00224789
  91        -0.00607212
  92        -0.00477728
  93         0.00000000
  94         0.00000000
  95         0.04614333
  96         0.01156124
  97         0.04614333
  98         0.01156124
Sym=     6a1 
Ene=    -0.7503
Spin= Alpha
Occup=    2.00000
   1        -0.06775865
   2         0.13771162
   3         0.09368017
   4        -0.09180505
   5         0.11848546
   6         0.00000000
   7        -0.05704495
   8         0.07038239
   9         0.00000000
  10         0.00425109
  11         0.01356377
  12        -0.00569909
  13        -0.01616831
  14         0.00000000
  15         0.00000000
  16        -0.06775865
  17         0.13771162
  18         0.09368017
  19         0.09180505
  20         0.11848546
  21         0.00000000
  22         0.05704495
  23         0.07038239
  24         0.00000000
  25         0.00425109
  26         0.01356377
  27        -0.00569909
  28         0.01616831
  29         0.00000000
  30         0.00000000
  31         0.06935205
  32        -0.14376434
  33        -0.06845363
  34        -0.06677642
  35         0.08046666
  36         0.00000000
  37        -0.03548292
  38         0.04974108
  39         0.00000000
  40        -0.00218945
  41        -0.00872027
  42         0.00564828
  43         0.01236089
  44         0.00000000
  45         0.00000000
  46         0.06935205
  47        -0.14376434
  48        -0.06845363
  49         0.06677642
  50         0.08046666
  51         0.00000000
  52         0.03548292
  53         0.04974108
  54         0.00000000
  55        -0.00218945
  56        -0.00872027
  57         0.00564828
  58        -0.01236089
  59         0.00000000
  60         0.00000000
  61         0.14684286
  62         0.06429941
  63         0.14684286
  64         0.06429941
  65        -0.02125191
  66         0.04116382
  67         0.04865454
  68         0.13102044
  69        -0.19357798
  70         0.00000000
  71         0.02940293
  72        -0.06503397
  73         0.00000000
  74         0.00598078
  75        -0.00334636
  76        -0.00061579
  77         0.00809736
  78         0.00000000
  79         0.00000000
  80        -0.02125191
  81         0.04116382
  82         0.04865454
  83        -0.13102044
  84        -0.19357798
  85         0.00000000
  86        -0.02940293
  87        -0.06503397
  88         0.00000000
  89         0.00598078
  90        -0.00334636
  91        -0.00061579
  92        -0.00809736
  93         0.00000000
  94         0.00000000
  95         0.07374425
  96         0.03608338
  97         0.07374425
  98         0.03608338
Sym=     7a1 
Ene=    -0.6829
Spin= Alpha
Occup=    2.00000
   1        -0.00913015
   2         0.02939390
   3        -0.07604735
   4        -0.12701002
   5         0.20065133
   6         0.00000000
   7        -0.07808024
   8         0.12016435
   9         0.00000000
  10         0.00652764
  11         0.00642040
  12         0.00011105
  13        -0.00763179
  14         0.00000000
  15         0.00000000
  16        -0.00913015
  17         0.02939390
  18        -0.07604735
  19         0.12701002
  20         0.20065133
  21         0.00000000
  22         0.07808024
  23         0.12016435
  24         0.00000000
  25         0.00652764
  26         0.00642040
  27         0.00011105
  28         0.00763179
  29         0.00000000
  30         0.00000000
  31         0.01103594
  32        -0.01551835
  33         0.07474885
  34         0.15234753
  35        -0.13736330
  36         0.00000000
  37        -0.03624671
  38         0.06803373
  39         0.00000000
  40         0.00315973
  41        -0.00079544
  42         0.00198675
  43        -0.00019384
  44         0.00000000
  45         0.00000000
  46         0.01103594
  47        -0.01551835
  48         0.07474885
  49        -0.15234753
  50        -0.13736330
  51         0.00000000
  52         0.03624671
  53         0.06803373
  54         0.00000000
  55         0.00315973
  56        -0.00079544
  57         0.00198675
  58         0.00019384
  59         0.00000000
  60         0.00000000
  61         0.14251100
  62         0.07177394
  63         0.14251100
  64         0.07177394
  65        -0.00175865
  66         0.00163214
  67         0.05634999
  68         0.02772009
  69         0.23325992
  70         0.00000000
  71         0.00125564
  72         0.11819903
  73         0.00000000
  74         0.00019337
  75        -0.00328612
  76        -0.00058299
  77        -0.00749229
  78         0.00000000
  79         0.00000000
  80        -0.00175865
  81         0.00163214
  82         0.05634999
  83        -0.02772009
  84         0.23325992
  85         0.00000000
  86        -0.00125564
  87         0.11819903
  88         0.00000000
  89         0.00019337
  90        -0.00328612
  91        -0.00058299
  92         0.00749229
  93         0.00000000
  94         0.00000000
  95        -0.12144537
  96        -0.06708584
  97        -0.12144537
  98        -0.06708584
Sym=     8a1 
Ene=    -0.6484
Spin= Alpha
Occup=    2.00000
   1        -0.00715723
   2         0.00687588
   3         0.07627221
   4         0.10310311
   5        -0.07126613
   6         0.00000000
   7         0.06446759
   8        -0.05060558
   9         0.00000000
  10         0.00218843
  11        -0.00765210
  12        -0.00109837
  13         0.00043470
  14         0.00000000
  15         0.00000000
  16        -0.00715723
  17         0.00687588
  18         0.07627221
  19        -0.10310311
  20        -0.07126613
  21         0.00000000
  22        -0.06446759
  23        -0.05060558
  24         0.00000000
  25         0.00218843
  26        -0.00765210
  27        -0.00109837
  28        -0.00043470
  29         0.00000000
  30         0.00000000
  31         0.01081722
  32        -0.02550827
  33        -0.08373558
  34        -0.02529389
  35         0.17190306
  36         0.00000000
  37         0.04513730
  38        -0.01401061
  39         0.00000000
  40         0.00491315
  41        -0.00582583
  42         0.00024173
  43        -0.00145965
  44         0.00000000
  45         0.00000000
  46         0.01081722
  47        -0.02550827
  48        -0.08373558
  49         0.02529389
  50         0.17190306
  51         0.00000000
  52        -0.04513730
  53        -0.01401061
  54         0.00000000
  55         0.00491315
  56        -0.00582583
  57         0.00024173
  58         0.00145965
  59         0.00000000
  60         0.00000000
  61        -0.06113626
  62        -0.03155381
  63        -0.06113626
  64        -0.03155381
  65        -0.01001230
  66         0.02473279
  67        -0.05644802
  68         0.37165501
  69         0.06093514
  70         0.00000000
  71         0.14066372
  72         0.01470716
  73         0.00000000
  74         0.00863554
  75        -0.02045907
  76         0.00151975
  77         0.00179317
  78         0.00000000
  79         0.00000000
  80        -0.01001230
  81         0.02473279
  82        -0.05644802
  83        -0.37165501
  84         0.06093514
  85         0.00000000
  86        -0.14066372
  87         0.01470716
  88         0.00000000
  89         0.00863554
  90        -0.02045907
  91         0.00151975
  92        -0.00179317
  93         0.00000000
  94         0.00000000
  95        -0.12581403
  96        -0.08857874
  97        -0.12581403
  98        -0.08857874
Sym=     9a1 
Ene=    -0.4000
Spin= Alpha
Occup=    2.00000
   1         0.00268735
   2        -0.00669864
   3         0.01496981
   4         0.21669479
   5         0.17062283
   6         0.00000000
   7         0.15977196
   8         0.10441129
   9         0.00000000
  10         0.01470657
  11        -0.01455324
  12        -0.00042059
  13        -0.00497294
  14         0.00000000
  15         0.00000000
  16         0.00268735
  17        -0.00669864
  18         0.01496981
  19        -0.21669479
  20         0.17062283
  21         0.00000000
  22        -0.15977196
  23         0.10441129
  24         0.00000000
  25         0.01470657
  26        -0.01455324
  27        -0.00042059
  28         0.00497294
  29         0.00000000
  30         0.00000000
  31        -0.00188082
  32         0.00152147
  33         0.00605871
  34         0.21771589
  35         0.15295951
  36         0.00000000
  37         0.16436100
  38         0.08986267
  39         0.00000000
  40        -0.01746757
  41         0.01628382
  42        -0.00033749
  43         0.00692257
  44         0.00000000
  45         0.00000000
  46        -0.00188082
  47         0.00152147
  48         0.00605871
  49        -0.21771589
  50         0.15295951
  51         0.00000000
  52        -0.16436100
  53         0.08986267
  54         0.00000000
  55        -0.01746757
  56         0.01628382
  57        -0.00033749
  58        -0.00692257
  59         0.00000000
  60         0.00000000
  61         0.00225263
  62         0.00672978
  63         0.00225263
  64         0.00672978
  65         0.01222200
  66        -0.02787312
  67        -0.04025040
  68        -0.10190304
  69        -0.04959252
  70         0.00000000
  71        -0.04307171
  72        -0.03690401
  73         0.00000000
  74        -0.01164415
  75         0.01593789
  76        -0.00046624
  77         0.00612570
  78         0.00000000
  79         0.00000000
  80         0.01222200
  81        -0.02787312
  82        -0.04025040
  83         0.10190304
  84        -0.04959252
  85         0.00000000
  86         0.04307171
  87        -0.03690401
  88         0.00000000
  89        -0.01164415
  90         0.01593789
  91        -0.00046624
  92        -0.00612570
  93         0.00000000
  94         0.00000000
  95         0.06740986
  96         0.07549791
  97         0.06740986
  98         0.07549791
Sym=    10a1 
Ene=     0.1933
Spin= Alpha
Occup=    0.00000
   1         0.00422580
   2        -0.02233037
   3         0.13713118
   4        -0.17560713
   5        -0.11448312
   6         0.00000000
   7        -0.29052687
   8        -0.32265212
   9         0.00000000
  10         0.01446067
  11        -0.01555320
  12        -0.00226468
  13        -0.00481376
  14         0.00000000
  15         0.00000000
  16         0.00422580
  17        -0.02233037
  18         0.13713118
  19         0.17560713
  20        -0.11448312
  21         0.00000000
  22         0.29052687
  23        -0.32265212
  24         0.00000000
  25         0.01446067
  26        -0.01555320
  27        -0.00226468
  28         0.00481376
  29         0.00000000
  30         0.00000000
  31        -0.00196906
  32        -0.02424710
  33         0.07358086
  34         0.15623906
  35         0.11092960
  36         0.00000000
  37         0.39222288
  38         0.04142540
  39         0.00000000
  40         0.01974879
  41        -0.02154676
  42        -0.00325387
  43        -0.00147137
  44         0.00000000
  45         0.00000000
  46        -0.00196906
  47        -0.02424710
  48         0.07358086
  49        -0.15623906
  50         0.11092960
  51         0.00000000
  52        -0.39222288
  53         0.04142540
  54         0.00000000
  55         0.01974879
  56        -0.02154676
  57        -0.00325387
  58         0.00147137
  59         0.00000000
  60         0.00000000
  61        -0.00003161
  62         0.03676377
  63        -0.00003161
  64         0.03676377
  65         0.04491025
  66        -0.07275634
  67        -0.73191302
  68         0.00927241
  69         0.06125386
  70         0.00000000
  71         0.25630622
  72         0.16315244
  73         0.00000000
  74        -0.01815510
  75         0.02309671
  76        -0.00031601
  77         0.01755751
  78         0.00000000
  79         0.00000000
  80         0.04491025
  81        -0.07275634
  82        -0.73191302
  83        -0.00927241
  84         0.06125386
  85         0.00000000
  86        -0.25630622
  87         0.16315244
  88         0.00000000
  89        -0.01815510
  90         0.02309671
  91        -0.00031601
  92        -0.01755751
  93         0.00000000
  94         0.00000000
  95         0.07355526
  96         0.78505008
  97         0.07355526
  98         0.78505008
Sym=    11a1 
Ene=     0.2705
Spin= Alpha
Occup=    0.00000
   1        -0.06718407
   2         0.13056129
   3        -0.71755546
   4        -0.08532904
   5         0.11759282
   6         0.00000000
   7        -1.28677703
   8         1.71165564
   9         0.00000000
  10        -0.00386176
  11        -0.01267627
  12         0.00756937
  13         0.01748547
  14         0.00000000
  15         0.00000000
  16        -0.06718407
  17         0.13056129
  18        -0.71755546
  19         0.08532904
  20         0.11759282
  21         0.00000000
  22         1.28677703