[Molden Format]
[N_Atoms]
                   10
[Atoms] (AU)
C1          1      6          -4.17297316      1.98630105      0.00000000
C1          2      6           4.17297316      1.98630105      0.00000000
C2          3      6          -2.81669698      0.19709178      0.00000000
C2          4      6           2.81669698      0.19709178      0.00000000
H3          5      1           5.35792111      3.59399698      0.00000000
H3          6      1          -5.35792111      3.59399698      0.00000000
C4          7      6          -1.25521120     -2.01772294      0.00000000
C4          8      6           1.25521120     -2.01772294      0.00000000
H5          9      1          -2.23218267     -3.79911759      0.00000000
H5         10      1           2.23218267     -3.79911759      0.00000000
[Charge] (Mulliken)
  -1.0140129145244412     
  -1.0140129145244412     
  0.30398550403547908     
  0.30398550403547908     
  0.59521632469712871     
  0.59521632469712871     
 -0.34857162577627854     
 -0.34857162577627854     
  0.46338271156794808     
  0.46338271156794808     
[GTO] (AU)
   1
   s   6
  3.047524880E+03  1.834737132E-03
  4.573695180E+02  1.403732281E-02
  1.039486850E+02  6.884262227E-02
  2.921015530E+01  2.321844432E-01
  9.286662960E+00  4.679413484E-01
  3.163926960E+00  3.623119853E-01
   s   3
  7.868272350E+00 -1.193324198E-01
  1.881288540E+00 -1.608541517E-01
  5.442492580E-01  1.143456438E+00
   s   1
  1.687144782E-01  1.000000000E+00
   p   3
  7.868272350E+00  6.899906659E-02
  1.881288540E+00  3.164239610E-01
  5.442492580E-01  7.443082909E-01
   p   1
  1.687144782E-01  1.000000000E+00
   d   1
  8.000000000E-01  1.000000000E+00
 
   2
   s   6
  3.047524880E+03  1.834737132E-03
  4.573695180E+02  1.403732281E-02
  1.039486850E+02  6.884262227E-02
  2.921015530E+01  2.321844432E-01
  9.286662960E+00  4.679413484E-01
  3.163926960E+00  3.623119853E-01
   s   3
  7.868272350E+00 -1.193324198E-01
  1.881288540E+00 -1.608541517E-01
  5.442492580E-01  1.143456438E+00
   s   1
  1.687144782E-01  1.000000000E+00
   p   3
  7.868272350E+00  6.899906659E-02
  1.881288540E+00  3.164239610E-01
  5.442492580E-01  7.443082909E-01
   p   1
  1.687144782E-01  1.000000000E+00
   d   1
  8.000000000E-01  1.000000000E+00
 
   3
   s   6
  3.047524880E+03  1.834737132E-03
  4.573695180E+02  1.403732281E-02
  1.039486850E+02  6.884262227E-02
  2.921015530E+01  2.321844432E-01
  9.286662960E+00  4.679413484E-01
  3.163926960E+00  3.623119853E-01
   s   3
  7.868272350E+00 -1.193324198E-01
  1.881288540E+00 -1.608541517E-01
  5.442492580E-01  1.143456438E+00
   s   1
  1.687144782E-01  1.000000000E+00
   p   3
  7.868272350E+00  6.899906659E-02
  1.881288540E+00  3.164239610E-01
  5.442492580E-01  7.443082909E-01
   p   1
  1.687144782E-01  1.000000000E+00
   d   1
  8.000000000E-01  1.000000000E+00
 
   4
   s   6
  3.047524880E+03  1.834737132E-03
  4.573695180E+02  1.403732281E-02
  1.039486850E+02  6.884262227E-02
  2.921015530E+01  2.321844432E-01
  9.286662960E+00  4.679413484E-01
  3.163926960E+00  3.623119853E-01
   s   3
  7.868272350E+00 -1.193324198E-01
  1.881288540E+00 -1.608541517E-01
  5.442492580E-01  1.143456438E+00
   s   1
  1.687144782E-01  1.000000000E+00
   p   3
  7.868272350E+00  6.899906659E-02
  1.881288540E+00  3.164239610E-01
  5.442492580E-01  7.443082909E-01
   p   1
  1.687144782E-01  1.000000000E+00
   d   1
  8.000000000E-01  1.000000000E+00
 
   5
   s   3
  1.873113696E+01  3.349460434E-02
  2.825394365E+00  2.347269535E-01
  6.401216923E-01  8.137573261E-01
   s   1
  1.612777588E-01  1.000000000E+00
 
   6
   s   3
  1.873113696E+01  3.349460434E-02
  2.825394365E+00  2.347269535E-01
  6.401216923E-01  8.137573261E-01
   s   1
  1.612777588E-01  1.000000000E+00
 
   7
   s   6
  3.047524880E+03  1.834737132E-03
  4.573695180E+02  1.403732281E-02
  1.039486850E+02  6.884262227E-02
  2.921015530E+01  2.321844432E-01
  9.286662960E+00  4.679413484E-01
  3.163926960E+00  3.623119853E-01
   s   3
  7.868272350E+00 -1.193324198E-01
  1.881288540E+00 -1.608541517E-01
  5.442492580E-01  1.143456438E+00
   s   1
  1.687144782E-01  1.000000000E+00
   p   3
  7.868272350E+00  6.899906659E-02
  1.881288540E+00  3.164239610E-01
  5.442492580E-01  7.443082909E-01
   p   1
  1.687144782E-01  1.000000000E+00
   d   1
  8.000000000E-01  1.000000000E+00
 
   8
   s   6
  3.047524880E+03  1.834737132E-03
  4.573695180E+02  1.403732281E-02
  1.039486850E+02  6.884262227E-02
  2.921015530E+01  2.321844432E-01
  9.286662960E+00  4.679413484E-01
  3.163926960E+00  3.623119853E-01
   s   3
  7.868272350E+00 -1.193324198E-01
  1.881288540E+00 -1.608541517E-01
  5.442492580E-01  1.143456438E+00
   s   1
  1.687144782E-01  1.000000000E+00
   p   3
  7.868272350E+00  6.899906659E-02
  1.881288540E+00  3.164239610E-01
  5.442492580E-01  7.443082909E-01
   p   1
  1.687144782E-01  1.000000000E+00
   d   1
  8.000000000E-01  1.000000000E+00
 
   9
   s   3
  1.873113696E+01  3.349460434E-02
  2.825394365E+00  2.347269535E-01
  6.401216923E-01  8.137573261E-01
   s   1
  1.612777588E-01  1.000000000E+00
 
  10
   s   3
  1.873113696E+01  3.349460434E-02
  2.825394365E+00  2.347269535E-01
  6.401216923E-01  8.137573261E-01
   s   1
  1.612777588E-01  1.000000000E+00
 
[MO]
Sym=     1a1 
Ene=   -11.2710
Spin= Alpha
Occup=    2.00000
   1         0.00023650
   2         0.00024748
   3        -0.00319462
   4         0.00009609
   5        -0.00008761
   6         0.00000000
   7        -0.00142250
   8         0.00182767
   9         0.00000000
  10         0.00006577
  11         0.00005597
  12         0.00000493
  13        -0.00006285
  14         0.00000000
  15         0.00000000
  16         0.00023650
  17         0.00024748
  18        -0.00319462
  19        -0.00009609
  20        -0.00008761
  21         0.00000000
  22         0.00142250
  23         0.00182767
  24         0.00000000
  25         0.00006577
  26         0.00005597
  27         0.00000493
  28         0.00006285
  29         0.00000000
  30         0.00000000
  31         0.00832279
  32         0.00014172
  33         0.00514382
  34        -0.00002944
  35         0.00008159
  36         0.00000000
  37        -0.00088682
  38         0.00120874
  39         0.00000000
  40        -0.00025326
  41        -0.00055249
  42        -0.00015201
  43         0.00019606
  44         0.00000000
  45         0.00000000
  46         0.00832279
  47         0.00014172
  48         0.00514382
  49         0.00002944
  50         0.00008159
  51         0.00000000
  52         0.00088682
  53         0.00120874
  54         0.00000000
  55        -0.00025326
  56        -0.00055249
  57        -0.00015201
  58        -0.00019606
  59         0.00000000
  60         0.00000000
  61        -0.00011027
  62        -0.00068036
  63        -0.00011027
  64        -0.00068036
  65         0.70372046
  66         0.01928198
  67        -0.00509118
  68        -0.00031969
  69         0.00037020
  70         0.00000000
  71         0.00074756
  72        -0.00010637
  73         0.00000000
  74        -0.00120060
  75        -0.00148131
  76        -0.00178264
  77        -0.00008665
  78         0.00000000
  79         0.00000000
  80         0.70372046
  81         0.01928198
  82        -0.00509118
  83         0.00031969
  84         0.00037020
  85         0.00000000
  86        -0.00074756
  87        -0.00010637
  88         0.00000000
  89        -0.00120060
  90        -0.00148131
  91        -0.00178264
  92         0.00008665
  93         0.00000000
  94         0.00000000
  95        -0.00008023
  96         0.00136713
  97        -0.00008023
  98         0.00136713
Sym=     2a1 
Ene=   -11.2360
Spin= Alpha
Occup=    2.00000
   1         0.22859556
   2         0.00542589
   3         0.00054093
   4        -0.00025237
   5         0.00031645
   6         0.00000000
   7         0.00060025
   8        -0.00096592
   9         0.00000000
  10        -0.00059782
  11        -0.00036671
  12        -0.00081703
  13        -0.00035583
  14         0.00000000
  15         0.00000000
  16         0.22859556
  17         0.00542589
  18         0.00054093
  19         0.00025237
  20         0.00031645
  21         0.00000000
  22        -0.00060025
  23        -0.00096592
  24         0.00000000
  25        -0.00059782
  26        -0.00036671
  27        -0.00081703
  28         0.00035583
  29         0.00000000
  30         0.00000000
  31         0.66533593
  32         0.01784436
  33        -0.00547497
  34         0.00002744
  35        -0.00021365
  36         0.00000000
  37        -0.00002366
  38         0.00049218
  39         0.00000000
  40        -0.00134409
  41        -0.00076063
  42        -0.00203669
  43        -0.00106079
  44         0.00000000
  45         0.00000000
  46         0.66533593
  47         0.01784436
  48        -0.00547497
  49        -0.00002744
  50        -0.00021365
  51         0.00000000
  52         0.00002366
  53         0.00049218
  54         0.00000000
  55        -0.00134409
  56        -0.00076063
  57        -0.00203669
  58         0.00106079
  59         0.00000000
  60         0.00000000
  61        -0.00030118
  62         0.00063414
  63        -0.00030118
  64         0.00063414
  65        -0.00826587
  66        -0.00023078
  67         0.00185785
  68         0.00032649
  69        -0.00049915
  70         0.00000000
  71        -0.00048927
  72         0.00059267
  73         0.00000000
  74        -0.00032481
  75        -0.00061318
  76        -0.00016653
  77         0.00038658
  78         0.00000000
  79         0.00000000
  80        -0.00826587
  81        -0.00023078
  82         0.00185785
  83        -0.00032649
  84        -0.00049915
  85         0.00000000
  86         0.00048927
  87         0.00059267
  88         0.00000000
  89        -0.00032481
  90        -0.00061318
  91        -0.00016653
  92        -0.00038658
  93         0.00000000
  94         0.00000000
  95        -0.00008103
  96         0.00010655
  97        -0.00008103
  98         0.00010655
Sym=     3a1 
Ene=   -11.2300
Spin= Alpha
Occup=    2.00000
   1        -0.66575550
   2        -0.01845555
   3         0.01031971
   4        -0.00013640
   5         0.00016498
   6         0.00000000
   7         0.00193781
   8        -0.00261853
   9         0.00000000
  10         0.00141664
  11         0.00108234
  12         0.00187220
  13         0.00068173
  14         0.00000000
  15         0.00000000
  16        -0.66575550
  17        -0.01845555
  18         0.01031971
  19         0.00013640
  20         0.00016498
  21         0.00000000
  22        -0.00193781
  23        -0.00261853
  24         0.00000000
  25         0.00141664
  26         0.00108234
  27         0.00187220
  28        -0.00068173
  29         0.00000000
  30         0.00000000
  31         0.22961090
  32         0.00705081
  33        -0.00849188
  34        -0.00020248
  35         0.00019923
  36         0.00000000
  37         0.00218314
  38        -0.00271468
  39         0.00000000
  40        -0.00044523
  41        -0.00038696
  42        -0.00049468
  43        -0.00008051
  44         0.00000000
  45         0.00000000
  46         0.22961090
  47         0.00705081
  48        -0.00849188
  49         0.00020248
  50         0.00019923
  51         0.00000000
  52        -0.00218314
  53        -0.00271468
  54         0.00000000
  55        -0.00044523
  56        -0.00038696
  57        -0.00049468
  58         0.00008051
  59         0.00000000
  60         0.00000000
  61         0.00060635
  62        -0.00048751
  63         0.00060635
  64        -0.00048751
  65        -0.00264211
  66        -0.00014739
  67        -0.00001541
  68         0.00003566
  69        -0.00008491
  70         0.00000000
  71        -0.00011407
  72         0.00009686
  73         0.00000000
  74        -0.00005908
  75        -0.00009170
  76        -0.00005982
  77         0.00003550
  78         0.00000000
  79         0.00000000
  80        -0.00264211
  81        -0.00014739
  82        -0.00001541
  83        -0.00003566
  84        -0.00008491
  85         0.00000000
  86         0.00011407
  87         0.00009686
  88         0.00000000
  89        -0.00005908
  90        -0.00009170
  91        -0.00005982
  92        -0.00003550
  93         0.00000000
  94         0.00000000
  95        -0.00004004
  96         0.00006684
  97        -0.00004004
  98         0.00006684
Sym=     4a1 
Ene=    -1.1161
Spin= Alpha
Occup=    2.00000
   1        -0.04351664
   2         0.07654983
   3         0.10692606
   4         0.02845692
   5        -0.03572564
   6         0.00000000
   7         0.01973382
   8        -0.02556332
   9         0.00000000
  10         0.00034998
  11         0.00189091
  12        -0.00246049
  13        -0.00389546
  14         0.00000000
  15         0.00000000
  16        -0.04351664
  17         0.07654983
  18         0.10692606
  19        -0.02845692
  20        -0.03572564
  21         0.00000000
  22        -0.01973382
  23        -0.02556332
  24         0.00000000
  25         0.00034998
  26         0.00189091
  27        -0.00246049
  28         0.00389546
  29         0.00000000
  30         0.00000000
  31        -0.08502724
  32         0.16220796
  33         0.05973821
  34         0.02379026
  35        -0.02475934
  36         0.00000000
  37         0.03551640
  38        -0.04548028
  39         0.00000000
  40         0.00330775
  41         0.00926979
  42        -0.00657388
  43        -0.01415437
  44         0.00000000
  45         0.00000000
  46        -0.08502724
  47         0.16220796
  48         0.05973821
  49        -0.02379026
  50        -0.02475934
  51         0.00000000
  52        -0.03551640
  53        -0.04548028
  54         0.00000000
  55         0.00330775
  56         0.00926979
  57        -0.00657388
  58         0.01415437
  59         0.00000000
  60         0.00000000
  61         0.01451275
  62         0.00689986
  63         0.01451275
  64         0.00689986
  65        -0.13600097
  66         0.26353756
  67         0.15254713
  68         0.06578922
  69         0.02973769
  70         0.00000000
  71         0.00885369
  72        -0.01093421
  73         0.00000000
  74         0.01327411
  75         0.00408818
  76        -0.01108386
  77        -0.00000209
  78         0.00000000
  79         0.00000000
  80        -0.13600097
  81         0.26353756
  82         0.15254713
  83        -0.06578922
  84         0.02973769
  85         0.00000000
  86        -0.00885369
  87        -0.01093421
  88         0.00000000
  89         0.01327411
  90         0.00408818
  91        -0.01108386
  92         0.00000209
  93         0.00000000
  94         0.00000000
  95         0.06468869
  96         0.00374408
  97         0.06468869
  98         0.00374408
Sym=     5a1 
Ene=    -0.9987
Spin= Alpha
Occup=    2.00000
   1         0.11844450
   2        -0.21747017
   3        -0.18335818
   4        -0.05996770
   5         0.08032792
   6         0.00000000
   7         0.00076906
   8        -0.00272470
   9         0.00000000
  10        -0.00149087
  11        -0.00977026
  12         0.00929302
  13         0.01633770
  14         0.00000000
  15         0.00000000
  16         0.11844450
  17        -0.21747017
  18        -0.18335818
  19         0.05996770
  20         0.08032792
  21         0.00000000
  22        -0.00076906
  23        -0.00272470
  24         0.00000000
  25        -0.00149087
  26        -0.00977026
  27         0.00929302
  28        -0.01633770
  29         0.00000000
  30         0.00000000
  31         0.08874629
  32        -0.15781899
  33        -0.12948389
  34         0.09756566
  35        -0.12481103
  36         0.00000000
  37        -0.00583582
  38         0.01397007
  39         0.00000000
  40         0.00247347
  41        -0.00033081
  42         0.00527453
  43         0.00421171
  44         0.00000000
  45         0.00000000
  46         0.08874629
  47        -0.15781899
  48        -0.12948389
  49        -0.09756566
  50        -0.12481103
  51         0.00000000
  52         0.00583582
  53         0.01397007
  54         0.00000000
  55         0.00247347
  56        -0.00033081
  57         0.00527453
  58        -0.00421171
  59         0.00000000
  60         0.00000000
  61        -0.05178127
  62        -0.00044629
  63        -0.05178127
  64        -0.00044629
  65        -0.07352000
  66         0.13957253
  67         0.14134800
  68         0.08258276
  69        -0.03562820
  70         0.00000000
  71         0.00238599
  72         0.00163636
  73         0.00000000
  74         0.00759821
  75        -0.00224790
  76        -0.00607212
  77         0.00477728
  78         0.00000000
  79         0.00000000
  80        -0.07352000
  81         0.13957253
  82         0.14134800
  83        -0.08258276
  84        -0.03562820
  85         0.00000000
  86        -0.00238599
  87         0.00163636
  88         0.00000000
  89         0.00759821
  90        -0.00224790
  91        -0.00607212
  92        -0.00477728
  93         0.00000000
  94         0.00000000
  95         0.04614329
  96         0.01156124
  97         0.04614329
  98         0.01156124
Sym=     6a1 
Ene=    -0.7503
Spin= Alpha
Occup=    2.00000
   1        -0.06775867
   2         0.13771162
   3         0.09368044
   4        -0.09180467
   5         0.11848486
   6         0.00000000
   7        -0.05704475
   8         0.07038206
   9         0.00000000
  10         0.00425109
  11         0.01356374
  12        -0.00569909
  13        -0.01616830
  14         0.00000000
  15         0.00000000
  16        -0.06775867
  17         0.13771162
  18         0.09368044
  19         0.09180467
  20         0.11848486
  21         0.00000000
  22         0.05704475
  23         0.07038206
  24         0.00000000
  25         0.00425109
  26         0.01356374
  27        -0.00569909
  28         0.01616830
  29         0.00000000
  30         0.00000000
  31         0.06935199
  32        -0.14376427
  33        -0.06845380
  34        -0.06677685
  35         0.08046716
  36         0.00000000
  37        -0.03548281
  38         0.04974095
  39         0.00000000
  40        -0.00218946
  41        -0.00872026
  42         0.00564827
  43         0.01236089
  44         0.00000000
  45         0.00000000
  46         0.06935199
  47        -0.14376427
  48        -0.06845380
  49         0.06677685
  50         0.08046716
  51         0.00000000
  52         0.03548281
  53         0.04974095
  54         0.00000000
  55        -0.00218946
  56        -0.00872026
  57         0.00564827
  58        -0.01236089
  59         0.00000000
  60         0.00000000
  61         0.14684250
  62         0.06429923
  63         0.14684250
  64         0.06429923
  65        -0.02125191
  66         0.04116383
  67         0.04865438
  68         0.13102070
  69        -0.19357846
  70         0.00000000
  71         0.02940302
  72        -0.06503422
  73         0.00000000
  74         0.00598079
  75        -0.00334638
  76        -0.00061578
  77         0.00809738
  78         0.00000000
  79         0.00000000
  80        -0.02125191
  81         0.04116383
  82         0.04865438
  83        -0.13102070
  84        -0.19357846
  85         0.00000000
  86        -0.02940302
  87        -0.06503422
  88         0.00000000
  89         0.00598079
  90        -0.00334638
  91        -0.00061578
  92        -0.00809738
  93         0.00000000
  94         0.00000000
  95         0.07374441
  96         0.03608344
  97         0.07374441
  98         0.03608344
Sym=     7a1 
Ene=    -0.6829
Spin= Alpha
Occup=    2.00000
   1        -0.00913033
   2         0.02939426
   3        -0.07604694
   4        -0.12701013
   5         0.20065140
   6         0.00000000
   7        -0.07808033
   8         0.12016435
   9         0.00000000
  10         0.00652767
  11         0.00642041
  12         0.00011103
  13        -0.00763183
  14         0.00000000
  15         0.00000000
  16        -0.00913033
  17         0.02939426
  18        -0.07604694
  19         0.12701013
  20         0.20065140
  21         0.00000000
  22         0.07808033
  23         0.12016435
  24         0.00000000
  25         0.00652767
  26         0.00642041
  27         0.00011103
  28         0.00763183
  29         0.00000000
  30         0.00000000
  31         0.01103613
  32        -0.01551874
  33         0.07474850
  34         0.15234742
  35        -0.13736276
  36         0.00000000
  37        -0.03624666
  38         0.06803386
  39         0.00000000
  40         0.00315974
  41        -0.00079548
  42         0.00198677
  43        -0.00019382
  44         0.00000000
  45         0.00000000
  46         0.01103613
  47        -0.01551874
  48         0.07474850
  49        -0.15234742
  50        -0.13736276
  51         0.00000000
  52         0.03624666
  53         0.06803386
  54         0.00000000
  55         0.00315974
  56        -0.00079548
  57         0.00198677
  58         0.00019382
  59         0.00000000
  60         0.00000000
  61         0.14251124
  62         0.07177405
  63         0.14251124
  64         0.07177405
  65        -0.00175869
  66         0.00163224
  67         0.05634997
  68         0.02772099
  69         0.23325958
  70         0.00000000
  71         0.00125594
  72         0.11819890
  73         0.00000000
  74         0.00019339
  75        -0.00328616
  76        -0.00058299
  77        -0.00749227
  78         0.00000000
  79         0.00000000
  80        -0.00175869
  81         0.00163224
  82         0.05634997
  83        -0.02772099
  84         0.23325958
  85         0.00000000
  86        -0.00125594
  87         0.11819890
  88         0.00000000
  89         0.00019339
  90        -0.00328616
  91        -0.00058299
  92         0.00749227
  93         0.00000000
  94         0.00000000
  95        -0.12144540
  96        -0.06708588
  97        -0.12144540
  98        -0.06708588
Sym=     8a1 
Ene=    -0.6484
Spin= Alpha
Occup=    2.00000
   1        -0.00715717
   2         0.00687573
   3         0.07627226
   4         0.10310341
   5        -0.07126656
   6         0.00000000
   7         0.06446778
   8        -0.05060582
   9         0.00000000
  10         0.00218841
  11        -0.00765211
  12        -0.00109837
  13         0.00043472
  14         0.00000000
  15         0.00000000
  16        -0.00715717
  17         0.00687573
  18         0.07627226
  19        -0.10310341
  20        -0.07126656
  21         0.00000000
  22        -0.06446778
  23        -0.05060582
  24         0.00000000
  25         0.00218841
  26        -0.00765211
  27        -0.00109837
  28        -0.00043472
  29         0.00000000
  30         0.00000000
  31         0.01081714
  32        -0.02550810
  33        -0.08373562
  34        -0.02529417
  35         0.17190317
  36         0.00000000
  37         0.04513733
  38        -0.01401079
  39         0.00000000
  40         0.00491314
  41        -0.00582582
  42         0.00024172
  43        -0.00145965
  44         0.00000000
  45         0.00000000
  46         0.01081714
  47        -0.02550810
  48        -0.08373562
  49         0.02529417
  50         0.17190317
  51         0.00000000
  52        -0.04513733
  53        -0.01401079
  54         0.00000000
  55         0.00491314
  56        -0.00582582
  57         0.00024172
  58         0.00145965
  59         0.00000000
  60         0.00000000
  61        -0.06113663
  62        -0.03155400
  63        -0.06113663
  64        -0.03155400
  65        -0.01001227
  66         0.02473274
  67        -0.05644817
  68         0.37165488
  69         0.06093493
  70         0.00000000
  71         0.14066369
  72         0.01470704
  73         0.00000000
  74         0.00863554
  75        -0.02045907
  76         0.00151975
  77         0.00179317
  78         0.00000000
  79         0.00000000
  80        -0.01001227
  81         0.02473274
  82        -0.05644817
  83        -0.37165488
  84         0.06093493
  85         0.00000000
  86        -0.14066369
  87         0.01470704
  88         0.00000000
  89         0.00863554
  90        -0.02045907
  91         0.00151975
  92        -0.00179317
  93         0.00000000
  94         0.00000000
  95        -0.12581391
  96        -0.08857866
  97        -0.12581391
  98        -0.08857866
Sym=     9a1 
Ene=    -0.4000
Spin= Alpha
Occup=    2.00000
   1         0.00268733
   2        -0.00669860
   3         0.01497013
   4         0.21669473
   5         0.17062277
   6         0.00000000
   7         0.15977198
   8         0.10441117
   9         0.00000000
  10         0.01470657
  11        -0.01455325
  12        -0.00042059
  13        -0.00497293
  14         0.00000000
  15         0.00000000
  16         0.00268733
  17        -0.00669860
  18         0.01497013
  19        -0.21669473
  20         0.17062277
  21         0.00000000
  22        -0.15977198
  23         0.10441117
  24         0.00000000
  25         0.01470657
  26        -0.01455325
  27        -0.00042059
  28         0.00497293
  29         0.00000000
  30         0.00000000
  31        -0.00188080
  32         0.00152141
  33         0.00605847
  34         0.21771598
  35         0.15295955
  36         0.00000000
  37         0.16436114
  38         0.08986261
  39         0.00000000
  40        -0.01746756
  41         0.01628381
  42        -0.00033749
  43         0.00692256
  44         0.00000000
  45         0.00000000
  46        -0.00188080
  47         0.00152141
  48         0.00605847
  49        -0.21771598
  50         0.15295955
  51         0.00000000
  52        -0.16436114
  53         0.08986261
  54         0.00000000
  55        -0.01746756
  56         0.01628381
  57        -0.00033749
  58        -0.00692256
  59         0.00000000
  60         0.00000000
  61         0.00225261
  62         0.00672975
  63         0.00225261
  64         0.00672975
  65         0.01222200
  66        -0.02787312
  67        -0.04025045
  68        -0.10190300
  69        -0.04959252
  70         0.00000000
  71        -0.04307168
  72        -0.03690403
  73         0.00000000
  74        -0.01164415
  75         0.01593790
  76        -0.00046624
  77         0.00612571
  78         0.00000000
  79         0.00000000
  80         0.01222200
  81        -0.02787312
  82        -0.04025045
  83         0.10190300
  84        -0.04959252
  85         0.00000000
  86         0.04307168
  87        -0.03690403
  88         0.00000000
  89        -0.01164415
  90         0.01593790
  91        -0.00046624
  92        -0.00612571
  93         0.00000000
  94         0.00000000
  95         0.06740986
  96         0.07549792
  97         0.06740986
  98         0.07549792
Sym=    10a1 
Ene=     0.1933
Spin= Alpha
Occup=    0.00000
   1         0.00422578
   2        -0.02233034
   3         0.13713140
   4        -0.17560709
   5        -0.11448312
   6         0.00000000
   7        -0.29052686
   8        -0.32265196
   9         0.00000000
  10         0.01446065
  11        -0.01555318
  12        -0.00226468
  13        -0.00481375
  14         0.00000000
  15         0.00000000
  16         0.00422578
  17        -0.02233034
  18         0.13713140
  19         0.17560709
  20        -0.11448312
  21         0.00000000
  22         0.29052686
  23        -0.32265196
  24         0.00000000
  25         0.01446065
  26        -0.01555318
  27        -0.00226468
  28         0.00481375
  29         0.00000000
  30         0.00000000
  31        -0.00196908
  32        -0.02424709
  33         0.07358118
  34         0.15623897
  35         0.11092957
  36         0.00000000
  37         0.39222274
  38         0.04142512
  39         0.00000000
  40         0.01974881
  41        -0.02154678
  42        -0.00325388
  43        -0.00147137
  44         0.00000000
  45         0.00000000
  46        -0.00196908
  47        -0.02424709
  48         0.07358118
  49        -0.15623897
  50         0.11092957
  51         0.00000000
  52        -0.39222274
  53         0.04142512
  54         0.00000000
  55         0.01974881
  56        -0.02154678
  57        -0.00325388
  58         0.00147137
  59         0.00000000
  60         0.00000000
  61        -0.00003165
  62         0.03676345
  63        -0.00003165
  64         0.03676345
  65         0.04491027
  66        -0.07275639
  67        -0.73191357
  68         0.00927251
  69         0.06125386
  70         0.00000000
  71         0.25630654
  72         0.16315252
  73         0.00000000
  74        -0.01815511
  75         0.02309672
  76        -0.00031601
  77         0.01755751
  78         0.00000000
  79         0.00000000
  80         0.04491027
  81        -0.07275639
  82        -0.73191357
  83        -0.00927251
  84         0.06125386
  85         0.00000000
  86        -0.25630654
  87         0.16315252
  88         0.00000000
  89        -0.01815511
  90         0.02309672
  91        -0.00031601
  92        -0.01755751
  93         0.00000000
  94         0.00000000
  95         0.07355527
  96         0.78505048
  97         0.07355527
  98         0.78505048
Sym=    11a1 
Ene=     0.2705
Spin= Alpha
Occup=    0.00000
   1        -0.06718408
   2         0.13056128
   3        -0.71755612
   4        -0.08532899
   5         0.11759275
   6         0.00000000
   7        -1.28677730
   8         1.71165598
   9         0.00000000
  10        -0.00386175
  11        -0.01267627
  12         0.00756937
  13         0.01748547
  14         0.00000000
  15         0.00000000
  16        -0.06718408
  17         0.13056128
  18        -0.71755612
  19         0.08532899
  20         0.11759275
  21         0.00000000
  22         1.28677730