[Molden Format]
[N_Atoms]
                   10
[Atoms] (AU)
C1          1      6          -4.17297316      1.98630104      0.00000000
C1          2      6           4.17297316      1.98630104      0.00000000
C2          3      6          -2.81669698      0.19709178      0.00000000
C2          4      6           2.81669698      0.19709178      0.00000000
H3          5      1           5.35792112      3.59399698      0.00000000
H3          6      1          -5.35792112      3.59399698      0.00000000
C4          7      6          -1.25521120     -2.01772294      0.00000000
C4          8      6           1.25521120     -2.01772294      0.00000000
H5          9      1          -2.23218267     -3.79911759      0.00000000
H5         10      1           2.23218267     -3.79911759      0.00000000
[Charge] (Mulliken)
   0.0000000000000000     
   0.0000000000000000     
   0.0000000000000000     
   0.0000000000000000     
   0.0000000000000000     
   0.0000000000000000     
   0.0000000000000000     
   0.0000000000000000     
   0.0000000000000000     
   0.0000000000000000     
[GTO] (AU)
   1
   s   6
  3.047524880E+03  1.834737132E-03
  4.573695180E+02  1.403732281E-02
  1.039486850E+02  6.884262227E-02
  2.921015530E+01  2.321844432E-01
  9.286662960E+00  4.679413484E-01
  3.163926960E+00  3.623119853E-01
   s   3
  7.868272350E+00 -1.193324198E-01
  1.881288540E+00 -1.608541517E-01
  5.442492580E-01  1.143456438E+00
   s   1
  1.687144782E-01  1.000000000E+00
   p   3
  7.868272350E+00  6.899906659E-02
  1.881288540E+00  3.164239610E-01
  5.442492580E-01  7.443082909E-01
   p   1
  1.687144782E-01  1.000000000E+00
   d   1
  8.000000000E-01  1.000000000E+00
 
   2
   s   6
  3.047524880E+03  1.834737132E-03
  4.573695180E+02  1.403732281E-02
  1.039486850E+02  6.884262227E-02
  2.921015530E+01  2.321844432E-01
  9.286662960E+00  4.679413484E-01
  3.163926960E+00  3.623119853E-01
   s   3
  7.868272350E+00 -1.193324198E-01
  1.881288540E+00 -1.608541517E-01
  5.442492580E-01  1.143456438E+00
   s   1
  1.687144782E-01  1.000000000E+00
   p   3
  7.868272350E+00  6.899906659E-02
  1.881288540E+00  3.164239610E-01
  5.442492580E-01  7.443082909E-01
   p   1
  1.687144782E-01  1.000000000E+00
   d   1
  8.000000000E-01  1.000000000E+00
 
   3
   s   6
  3.047524880E+03  1.834737132E-03
  4.573695180E+02  1.403732281E-02
  1.039486850E+02  6.884262227E-02
  2.921015530E+01  2.321844432E-01
  9.286662960E+00  4.679413484E-01
  3.163926960E+00  3.623119853E-01
   s   3
  7.868272350E+00 -1.193324198E-01
  1.881288540E+00 -1.608541517E-01
  5.442492580E-01  1.143456438E+00
   s   1
  1.687144782E-01  1.000000000E+00
   p   3
  7.868272350E+00  6.899906659E-02
  1.881288540E+00  3.164239610E-01
  5.442492580E-01  7.443082909E-01
   p   1
  1.687144782E-01  1.000000000E+00
   d   1
  8.000000000E-01  1.000000000E+00
 
   4
   s   6
  3.047524880E+03  1.834737132E-03
  4.573695180E+02  1.403732281E-02
  1.039486850E+02  6.884262227E-02
  2.921015530E+01  2.321844432E-01
  9.286662960E+00  4.679413484E-01
  3.163926960E+00  3.623119853E-01
   s   3
  7.868272350E+00 -1.193324198E-01
  1.881288540E+00 -1.608541517E-01
  5.442492580E-01  1.143456438E+00
   s   1
  1.687144782E-01  1.000000000E+00
   p   3
  7.868272350E+00  6.899906659E-02
  1.881288540E+00  3.164239610E-01
  5.442492580E-01  7.443082909E-01
   p   1
  1.687144782E-01  1.000000000E+00
   d   1
  8.000000000E-01  1.000000000E+00
 
   5
   s   3
  1.873113696E+01  3.349460434E-02
  2.825394365E+00  2.347269535E-01
  6.401216923E-01  8.137573261E-01
   s   1
  1.612777588E-01  1.000000000E+00
 
   6
   s   3
  1.873113696E+01  3.349460434E-02
  2.825394365E+00  2.347269535E-01
  6.401216923E-01  8.137573261E-01
   s   1
  1.612777588E-01  1.000000000E+00
 
   7
   s   6
  3.047524880E+03  1.834737132E-03
  4.573695180E+02  1.403732281E-02
  1.039486850E+02  6.884262227E-02
  2.921015530E+01  2.321844432E-01
  9.286662960E+00  4.679413484E-01
  3.163926960E+00  3.623119853E-01
   s   3
  7.868272350E+00 -1.193324198E-01
  1.881288540E+00 -1.608541517E-01
  5.442492580E-01  1.143456438E+00
   s   1
  1.687144782E-01  1.000000000E+00
   p   3
  7.868272350E+00  6.899906659E-02
  1.881288540E+00  3.164239610E-01
  5.442492580E-01  7.443082909E-01
   p   1
  1.687144782E-01  1.000000000E+00
   d   1
  8.000000000E-01  1.000000000E+00
 
   8
   s   6
  3.047524880E+03  1.834737132E-03
  4.573695180E+02  1.403732281E-02
  1.039486850E+02  6.884262227E-02
  2.921015530E+01  2.321844432E-01
  9.286662960E+00  4.679413484E-01
  3.163926960E+00  3.623119853E-01
   s   3
  7.868272350E+00 -1.193324198E-01
  1.881288540E+00 -1.608541517E-01
  5.442492580E-01  1.143456438E+00
   s   1
  1.687144782E-01  1.000000000E+00
   p   3
  7.868272350E+00  6.899906659E-02
  1.881288540E+00  3.164239610E-01
  5.442492580E-01  7.443082909E-01
   p   1
  1.687144782E-01  1.000000000E+00
   d   1
  8.000000000E-01  1.000000000E+00
 
   9
   s   3
  1.873113696E+01  3.349460434E-02
  2.825394365E+00  2.347269535E-01
  6.401216923E-01  8.137573261E-01
   s   1
  1.612777588E-01  1.000000000E+00
 
  10
   s   3
  1.873113696E+01  3.349460434E-02
  2.825394365E+00  2.347269535E-01
  6.401216923E-01  8.137573261E-01
   s   1
  1.612777588E-01  1.000000000E+00
 
[MO]
Sym=     1a1 
Ene=   -11.3600
Spin= Alpha
Occup=    2.00000
   1         0.42964607
   2         0.00921627
   3         0.00106432
   4         0.00108565
   5        -0.00142557
   6         0.00000000
   7         0.00067799
   8        -0.00089027
   9         0.00000000
  10         0.00000000
  11         0.00000000
  12         0.00000000
  13        -0.00000000
  14         0.00000000
  15         0.00000000
  16         0.42964607
  17         0.00921627
  18         0.00106432
  19        -0.00108565
  20        -0.00142557
  21         0.00000000
  22        -0.00067799
  23        -0.00089027
  24         0.00000000
  25         0.00000000
  26         0.00000000
  27         0.00000000
  28         0.00000000
  29         0.00000000
  30         0.00000000
  31         0.50195473
  32         0.01077057
  33         0.00124703
  34        -0.00048245
  35         0.00072144
  36         0.00000000
  37        -0.00030129
  38         0.00045054
  39         0.00000000
  40        -0.00000000
  41        -0.00000000
  42        -0.00000000
  43        -0.00000000
  44         0.00000000
  45         0.00000000
  46         0.50195473
  47         0.01077057
  48         0.00124703
  49         0.00048245
  50         0.00072144
  51         0.00000000
  52         0.00030129
  53         0.00045054
  54         0.00000000
  55        -0.00000000
  56        -0.00000000
  57        -0.00000000
  58         0.00000000
  59         0.00000000
  60         0.00000000
  61         0.00095070
  62         0.00106150
  63         0.00095070
  64         0.00106150
  65         0.23618927
  66         0.00567464
  67         0.00126221
  68         0.00008935
  69         0.00105692
  70         0.00000000
  71         0.00005580
  72         0.00066005
  73         0.00000000
  74        -0.00000000
  75        -0.00000000
  76        -0.00000000
  77        -0.00000000
  78         0.00000000
  79         0.00000000
  80         0.23618927
  81         0.00567464
  82         0.00126221
  83        -0.00008935
  84         0.00105692
  85         0.00000000
  86        -0.00005580
  87         0.00066005
  88         0.00000000
  89        -0.00000000
  90        -0.00000000
  91        -0.00000000
  92         0.00000000
  93         0.00000000
  94         0.00000000
  95         0.00066267
  96         0.00073991
  97         0.00066267
  98         0.00073991
Sym=     2a1 
Ene=   -11.3520
Spin= Alpha
Occup=    2.00000
   1        -0.27265568
   2        -0.00516945
   3         0.00008082
   4        -0.00006350
   5         0.00008693
   6         0.00000000
   7        -0.00003966
   8         0.00005429
   9         0.00000000
  10         0.00000000
  11         0.00000000
  12         0.00000000
  13         0.00000000
  14         0.00000000
  15         0.00000000
  16        -0.27265568
  17        -0.00516945
  18         0.00008082
  19         0.00006350
  20         0.00008693
  21         0.00000000
  22         0.00003966
  23         0.00005429
  24         0.00000000
  25         0.00000000
  26         0.00000000
  27         0.00000000
  28        -0.00000000
  29         0.00000000
  30         0.00000000
  31        -0.07019537
  32        -0.00091595
  33         0.00048277
  34         0.00156789
  35        -0.00200385
  36         0.00000000
  37         0.00097915
  38        -0.00125140
  39         0.00000000
  40         0.00000000
  41        -0.00000000
  42        -0.00000000
  43        -0.00000000
  44         0.00000000
  45         0.00000000
  46        -0.07019537
  47        -0.00091595
  48         0.00048277
  49        -0.00156789
  50        -0.00200385
  51         0.00000000
  52        -0.00097915
  53        -0.00125140
  54         0.00000000
  55         0.00000000
  56        -0.00000000
  57        -0.00000000
  58         0.00000000
  59         0.00000000
  60         0.00000000
  61        -0.00056383
  62        -0.00062954
  63        -0.00056383
  64        -0.00062954
  65         0.64352675
  66         0.01301338
  67         0.00071368
  68         0.00183746
  69        -0.00018046
  70         0.00000000
  71         0.00114749
  72        -0.00011270
  73         0.00000000
  74        -0.00000000
  75        -0.00000000
  76        -0.00000000
  77        -0.00000000
  78         0.00000000
  79         0.00000000
  80         0.64352675
  81         0.01301338
  82         0.00071368
  83        -0.00183746
  84        -0.00018046
  85         0.00000000
  86        -0.00114749
  87        -0.00011270
  88         0.00000000
  89        -0.00000000
  90        -0.00000000
  91        -0.00000000
  92         0.00000000
  93         0.00000000
  94         0.00000000
  95         0.00143730
  96         0.00160482
  97         0.00143730
  98         0.00160482
Sym=     3a1 
Ene=   -11.3240
Spin= Alpha
Occup=    2.00000
   1        -0.48552229
   2        -0.00779502
   3         0.00171409
   4         0.00097813
   5        -0.00128871
   6         0.00000000
   7         0.00061084
   8        -0.00080480
   9         0.00000000
  10        -0.00000000
  11        -0.00000000
  12        -0.00000000
  13         0.00000000
  14         0.00000000
  15         0.00000000
  16        -0.48552229
  17        -0.00779502
  18         0.00171409
  19        -0.00097813
  20        -0.00128871
  21         0.00000000
  22        -0.00061084
  23        -0.00080480
  24         0.00000000
  25        -0.00000000
  26        -0.00000000
  27        -0.00000000
  28        -0.00000000
  29         0.00000000
  30         0.00000000
  31         0.48751431
  32         0.00760101
  33        -0.00197274
  34         0.00079309
  35        -0.00101511
  36         0.00000000
  37         0.00049528
  38        -0.00063393
  39         0.00000000
  40         0.00000000
  41        -0.00000000
  42         0.00000000
  43        -0.00000000
  44         0.00000000
  45         0.00000000
  46         0.48751431
  47         0.00760101
  48        -0.00197274
  49        -0.00079309
  50        -0.00101511
  51         0.00000000
  52        -0.00049528
  53        -0.00063393
  54         0.00000000
  55         0.00000000
  56        -0.00000000
  57         0.00000000
  58         0.00000000
  59         0.00000000
  60         0.00000000
  61        -0.00088915
  62        -0.00099278
  63        -0.00088915
  64        -0.00099278
  65        -0.15277376
  66        -0.00235336
  67         0.00065004
  68        -0.00084028
  69         0.00087268
  70         0.00000000
  71        -0.00052476
  72         0.00054499
  73         0.00000000
  74         0.00000000
  75        -0.00000000
  76         0.00000000
  77        -0.00000000
  78         0.00000000
  79         0.00000000
  80        -0.15277376
  81        -0.00235336
  82         0.00065004
  83         0.00084028
  84         0.00087268
  85         0.00000000
  86         0.00052476
  87         0.00054499
  88         0.00000000
  89         0.00000000
  90        -0.00000000
  91         0.00000000
  92         0.00000000
  93         0.00000000
  94         0.00000000
  95        -0.00022347
  96        -0.00024952
  97        -0.00022347
  98        -0.00024952
Sym=     4a1 
Ene=    -1.5521
Spin= Alpha
Occup=    2.00000
   1        -0.03535034
   2         0.05020381
   3         0.05665154
   4         0.02347585
   5        -0.02634668
   6         0.00000000
   7         0.01466066
   8        -0.01645349
   9         0.00000000
  10        -0.00000000
  11        -0.00000000
  12         0.00000000
  13         0.00000000
  14         0.00000000
  15         0.00000000
  16        -0.03535034
  17         0.05020381
  18         0.05665154
  19        -0.02347585
  20        -0.02634668
  21         0.00000000
  22        -0.01466066
  23        -0.01645349
  24         0.00000000
  25        -0.00000000
  26        -0.00000000
  27         0.00000000
  28        -0.00000000
  29         0.00000000
  30         0.00000000
  31        -0.08830477
  32         0.11395848
  33         0.12876689
  34         0.03606568
  35        -0.03037501
  36         0.00000000
  37         0.02252300
  38        -0.01896918
  39         0.00000000
  40        -0.00000000
  41         0.00000000
  42        -0.00000000
  43        -0.00000000
  44         0.00000000
  45         0.00000000
  46        -0.08830477
  47         0.11395848
  48         0.12876689
  49        -0.03606568
  50        -0.03037501
  51         0.00000000
  52        -0.02252300
  53        -0.01896918
  54         0.00000000
  55        -0.00000000
  56         0.00000000
  57        -0.00000000
  58         0.00000000
  59         0.00000000
  60         0.00000000
  61         0.01142440
  62         0.01275594
  63         0.01142440
  64         0.01275594
  65        -0.14118344
  66         0.17564065
  67         0.19857317
  68         0.03450733
  69         0.01781916
  70         0.00000000
  71         0.02154981
  72         0.01112806
  73         0.00000000
  74        -0.00000000
  75        -0.00000000
  76        -0.00000000
  77         0.00000000
  78         0.00000000
  79         0.00000000
  80        -0.14118344
  81         0.17564065
  82         0.19857317
  83        -0.03450733
  84         0.01781916
  85         0.00000000
  86        -0.02154981
  87         0.01112806
  88         0.00000000
  89        -0.00000000
  90        -0.00000000
  91        -0.00000000
  92        -0.00000000
  93         0.00000000
  94         0.00000000
  95         0.07025637
  96         0.07844487
  97         0.07025637
  98         0.07844487
Sym=     5a1 
Ene=    -1.2381
Spin= Alpha
Occup=    2.00000
   1        -0.12941393
   2         0.17110414
   3         0.19327048
   4         0.01354806
   5        -0.01348239
   6         0.00000000
   7         0.00846075
   8        -0.00841975
   9         0.00000000
  10        -0.00000000
  11        -0.00000000
  12        -0.00000000
  13        -0.00000000
  14         0.00000000
  15         0.00000000
  16        -0.12941393
  17         0.17110414
  18         0.19327048
  19        -0.01354806
  20        -0.01348239
  21         0.00000000
  22        -0.00846075
  23        -0.00841975
  24         0.00000000
  25        -0.00000000
  26        -0.00000000
  27        -0.00000000
  28         0.00000000
  29         0.00000000
  30         0.00000000
  31        -0.08233071
  32         0.10765453
  33         0.12162046
  34        -0.05435033
  35         0.08165281
  36         0.00000000
  37        -0.03394175
  38         0.05099214
  39         0.00000000
  40         0.00000000
  41        -0.00000000
  42         0.00000000
  43         0.00000000
  44         0.00000000
  45         0.00000000
  46        -0.08233071
  47         0.10765453
  48         0.12162046
  49         0.05435033
  50         0.08165281
  51         0.00000000
  52         0.03394175
  53         0.05099214
  54         0.00000000
  55         0.00000000
  56        -0.00000000
  57         0.00000000
  58        -0.00000000
  59         0.00000000
  60         0.00000000
  61         0.07746286
  62         0.08649130
  63         0.07746286
  64         0.08649130
  65         0.06332315
  66        -0.07691041
  67        -0.08698434
  68        -0.04500148
  69         0.06191358
  70         0.00000000
  71        -0.02810340
  72         0.03866500
  73         0.00000000
  74         0.00000000
  75         0.00000000
  76         0.00000000
  77        -0.00000000
  78         0.00000000
  79         0.00000000
  80         0.06332315
  81        -0.07691041
  82        -0.08698434
  83         0.04500148
  84         0.06191358
  85         0.00000000
  86         0.02810340
  87         0.03866500
  88         0.00000000
  89         0.00000000
  90         0.00000000
  91         0.00000000
  92         0.00000000
  93         0.00000000
  94         0.00000000
  95        -0.05201814
  96        -0.05808095
  97        -0.05201814
  98        -0.05808095
Sym=     6a1 
Ene=    -0.9267
Spin= Alpha
Occup=    2.00000
   1        -0.05533892
   2         0.08498223
   3         0.09580027
   4        -0.09430643
   5         0.07379141
   6         0.00000000
   7        -0.05889431
   8         0.04608270
   9         0.00000000
  10        -0.00000000
  11        -0.00000000
  12         0.00000000
  13         0.00000000
  14         0.00000000
  15         0.00000000
  16        -0.05533892
  17         0.08498223
  18         0.09580027
  19         0.09430643
  20         0.07379141
  21         0.00000000
  22         0.05889431
  23         0.04608270
  24         0.00000000
  25        -0.00000000
  26        -0.00000000
  27         0.00000000
  28        -0.00000000
  29         0.00000000
  30         0.00000000
  31         0.06450637
  32        -0.08543890
  33        -0.09650495
  34        -0.09662437
  35         0.01279988
  36         0.00000000
  37        -0.06034187
  38         0.00799352
  39         0.00000000
  40        -0.00000000
  41        -0.00000000
  42        -0.00000000
  43        -0.00000000
  44         0.00000000
  45         0.00000000
  46         0.06450637
  47        -0.08543890
  48        -0.09650495
  49         0.09662437
  50         0.01279988
  51         0.00000000
  52         0.06034187
  53         0.00799352
  54         0.00000000
  55        -0.00000000
  56        -0.00000000
  57        -0.00000000
  58         0.00000000
  59         0.00000000
  60         0.00000000
  61         0.10348843
  62         0.11555018
  63         0.10348843
  64         0.11555018
  65        -0.01483208
  66         0.02471913
  67         0.02783875
  68         0.00376670
  69        -0.19533347
  70         0.00000000
  71         0.00235230
  72        -0.12198565
  73         0.00000000
  74         0.00000000
  75         0.00000000
  76        -0.00000000
  77        -0.00000000
  78         0.00000000
  79         0.00000000
  80        -0.01483208
  81         0.02471913
  82         0.02783875
  83        -0.00376670
  84        -0.19533347
  85         0.00000000
  86        -0.00235230
  87        -0.12198565
  88         0.00000000
  89         0.00000000
  90         0.00000000
  91        -0.00000000
  92         0.00000000
  93         0.00000000
  94         0.00000000
  95         0.10070368
  96         0.11244087
  97         0.10070368
  98         0.11244087
Sym=     7a1 
Ene=    -0.7779
Spin= Alpha
Occup=    2.00000
   1        -0.00665161
   2         0.02256008
   3         0.02525985
   4        -0.01979132
   5         0.17752178
   6         0.00000000
   7        -0.01235967
   8         0.11086226
   9         0.00000000
  10        -0.00000000
  11        -0.00000000
  12        -0.00000000
  13         0.00000000
  14         0.00000000
  15         0.00000000
  16        -0.00665161
  17         0.02256008
  18         0.02525985
  19         0.01979132
  20         0.17752178
  21         0.00000000
  22         0.01235967
  23         0.11086226
  24         0.00000000
  25        -0.00000000
  26        -0.00000000
  27        -0.00000000
  28        -0.00000000
  29         0.00000000
  30         0.00000000
  31         0.05775754
  32        -0.07846132
  33        -0.08859193
  34         0.15113223
  35         0.05661538
  36         0.00000000
  37         0.09438200
  38         0.03535627
  39         0.00000000
  40        -0.00000000
  41        -0.00000000
  42        -0.00000000
  43        -0.00000000
  44         0.00000000
  45         0.00000000
  46         0.05775754
  47        -0.07846132
  48        -0.08859193
  49        -0.15113223
  50         0.05661538
  51         0.00000000
  52        -0.09438200
  53         0.03535627
  54         0.00000000
  55        -0.00000000
  56        -0.00000000
  57        -0.00000000
  58         0.00000000
  59         0.00000000
  60         0.00000000
  61         0.10138889
  62         0.11320594
  63         0.10138889
  64         0.11320594
  65        -0.03516756
  66         0.04259845
  67         0.04818014
  68         0.18138021
  69         0.09126878
  70         0.00000000
  71         0.11327184
  72         0.05699730
  73         0.00000000
  74        -0.00000000
  75        -0.00000000
  76        -0.00000000
  77        -0.00000000
  78         0.00000000
  79         0.00000000
  80        -0.03516756
  81         0.04259845
  82         0.04818014
  83        -0.18138021
  84         0.09126878
  85         0.00000000
  86        -0.11327184
  87         0.05699730
  88         0.00000000
  89        -0.00000000
  90        -0.00000000
  91        -0.00000000
  92         0.00000000
  93         0.00000000
  94         0.00000000
  95        -0.07286202
  96        -0.08135421
  97        -0.07286202
  98        -0.08135421
Sym=     8a1 
Ene=    -0.6223
Spin= Alpha
Occup=    2.00000
   1        -0.02980367
   2         0.02850774
   3         0.03237731
   4         0.21005988
   5        -0.04512152
   6         0.00000000
   7         0.13118229
   8        -0.02817837
   9         0.00000000
  10        -0.00000000
  11        -0.00000000
  12        -0.00000000
  13        -0.00000000
  14         0.00000000
  15         0.00000000
  16        -0.02980367
  17         0.02850774
  18         0.03237731
  19        -0.21005988
  20        -0.04512152
  21         0.00000000
  22        -0.13118229
  23        -0.02817837
  24         0.00000000
  25        -0.00000000
  26        -0.00000000
  27        -0.00000000
  28         0.00000000
  29         0.00000000
  30         0.00000000
  31        -0.00527885
  32        -0.00764625
  33        -0.00840002
  34         0.00622555
  35         0.24350559
  36         0.00000000
  37         0.00388786
  38         0.15206911
  39         0.00000000
  40         0.00000000
  41         0.00000000
  42         0.00000000
  43         0.00000000
  44         0.00000000
  45         0.00000000
  46        -0.00527885
  47        -0.00764625
  48        -0.00840002
  49        -0.00622555
  50         0.24350559
  51         0.00000000
  52        -0.00388786
  53         0.15206911
  54         0.00000000
  55         0.00000000
  56         0.00000000
  57         0.00000000
  58        -0.00000000
  59         0.00000000
  60         0.00000000
  61        -0.09537698
  62        -0.10649334
  63        -0.09537698
  64        -0.10649334
  65         0.00669598
  66        -0.01721966
  67        -0.01931499
  68         0.15350908
  69        -0.14427876
  70         0.00000000
  71         0.09586634
  72        -0.09010201
  73         0.00000000
  74        -0.00000000
  75        -0.00000000
  76         0.00000000
  77         0.00000000
  78         0.00000000
  79         0.00000000
  80         0.00669598
  81        -0.01721966
  82        -0.01931499
  83        -0.15350908
  84        -0.14427876
  85         0.00000000
  86        -0.09586634
  87        -0.09010201
  88         0.00000000
  89        -0.00000000
  90        -0.00000000
  91         0.00000000
  92        -0.00000000
  93         0.00000000
  94         0.00000000
  95         0.02583291
  96         0.02884378
  97         0.02583291
  98         0.02884378
Sym=     9a1 
Ene=    -0.5178
Spin= Alpha
Occup=    2.00000
   1         0.01715938
   2        -0.02296605
   3        -0.02593676
   4         0.18536018
   5         0.20612132
   6         0.00000000
   7         0.11575733
   8         0.12872265
   9         0.00000000
  10         0.00000000
  11         0.00000000
  12         0.00000000
  13        -0.00000000
  14         0.00000000
  15         0.00000000
  16         0.01715938
  17        -0.02296605
  18        -0.02593676
  19        -0.18536018
  20         0.20612132
  21         0.00000000
  22        -0.11575733
  23         0.12872265
  24         0.00000000
  25         0.00000000
  26         0.00000000
  27         0.00000000
  28         0.00000000
  29         0.00000000
  30         0.00000000
  31        -0.00918886
  32         0.02656625
  33         0.02977446
  34         0.18077292
  35         0.02362797
  36         0.00000000
  37         0.11289260
  38         0.01475565
  39         0.00000000
  40        -0.00000000
  41         0.00000000
  42        -0.00000000
  43        -0.00000000
  44         0.00000000
  45         0.00000000
  46        -0.00918886
  47         0.02656625
  48         0.02977446
  49        -0.18077292
  50         0.02362797
  51         0.00000000
  52        -0.11289260
  53         0.01475565
  54         0.00000000
  55        -0.00000000
  56         0.00000000
  57        -0.00000000
  58         0.00000000
  59         0.00000000
  60         0.00000000
  61         0.03156018
  62         0.03523857
  63         0.03156018
  64         0.03523857
  65         0.02982100
  66        -0.04309323
  67        -0.04861656
  68        -0.26104820
  69        -0.03000738
  70         0.00000000
  71        -0.16302446
  72        -0.01873959
  73         0.00000000
  74         0.00000000
  75         0.00000000
  76         0.00000000
  77         0.00000000
  78         0.00000000
  79         0.00000000
  80         0.02982100
  81        -0.04309323
  82        -0.04861656
  83         0.26104820
  84        -0.03000738
  85         0.00000000
  86         0.16302446
  87        -0.01873959
  88         0.00000000
  89         0.00000000
  90         0.00000000
  91         0.00000000
  92        -0.00000000
  93         0.00000000
  94         0.00000000
  95         0.10065526
  96         0.11238681
  97         0.10065526
  98         0.11238681
Sym=    10a1 
Ene=    -0.2616
Spin= Alpha
Occup=    0.00000
   1         0.00306037
   2        -0.00615386
   3        -0.00691696
   4        -0.33630920
   5        -0.24217906
   6         0.00000000
   7        -0.21002492
   8        -0.15124070
   9         0.00000000
  10         0.00000000
  11         0.00000000
  12         0.00000000
  13         0.00000000
  14         0.00000000
  15         0.00000000
  16         0.00306037
  17        -0.00615386
  18        -0.00691696
  19         0.33630920
  20        -0.24217906
  21         0.00000000
  22         0.21002492
  23        -0.15124070
  24         0.00000000
  25         0.00000000
  26         0.00000000
  27         0.00000000
  28        -0.00000000
  29         0.00000000
  30         0.00000000
  31        -0.00122471
  32         0.00986625
  33         0.01101089
  34         0.35534066
  35         0.25341841
  36         0.00000000
  37         0.22191006
  38         0.15825966
  39         0.00000000
  40        -0.00000000
  41         0.00000000
  42        -0.00000000
  43        -0.00000000
  44         0.00000000
  45         0.00000000
  46        -0.00122471
  47         0.00986625
  48         0.01101089
  49        -0.35534066
  50         0.25341841
  51         0.00000000
  52        -0.22191006
  53         0.15825966
  54         0.00000000
  55        -0.00000000
  56         0.00000000
  57        -0.00000000
  58         0.00000000
  59         0.00000000
  60         0.00000000
  61         0.00328009
  62         0.00366239
  63         0.00328009
  64         0.00366239
  65         0.02693645
  66        -0.07256663
  67        -0.08136930
  68        -0.07321118
  69        -0.01153765
  70         0.00000000
  71        -0.04572034
  72        -0.00720525
  73         0.00000000
  74         0.00000000
  75         0.00000000
  76         0.00000000
  77         0.00000000
  78         0.00000000
  79         0.00000000
  80         0.02693645
  81        -0.07256663
  82        -0.08136930
  83         0.07321118
  84        -0.01153765
  85         0.00000000
  86         0.04572034
  87        -0.00720525
  88         0.00000000
  89         0.00000000
  90         0.00000000
  91         0.00000000
  92        -0.00000000
  93         0.00000000
  94         0.00000000
  95         0.11835092
  96         0.13214492
  97         0.11835092
  98         0.13214492
Sym=    11a1 
Ene=    -0.1531
Spin= Alpha
Occup=    0.00000
   1        -0.07719241
   2         0.30840162
   3         0.34501405
   4        -0.03685725
   5         0.07880161
   6         0.00000000
   7        -0.02301733
   8         0.04921157
   9         0.00000000
  10         0.00000000
  11        -0.00000000
  12         0.00000000
  13         0.00000000
  14         0.00000000
  15         0.00000000
  16        -0.07719241
  17         0.30840162
  18         0.34501405
  19         0.03685725
  20         0.07880161
  21         0.00000000
  22         0.02301733