[Molden Format]
[N_Atoms]
                   10
[Atoms] (AU)
C1          1      6           1.50460821      2.23558875      0.00000000
C1          2      6          -1.50460821      2.23558875      0.00000000
C2          3      6           2.53908210      0.01871122      0.00000000
C2          4      6          -2.53908210      0.01871122      0.00000000
H3          5      1          -2.22480494      4.12473475      0.00000000
H3          6      1           2.22480494      4.12473475      0.00000000
C4          7      6           1.35186649     -2.25819769      0.00000000
C4          8      6          -1.35186649     -2.25819769      0.00000000
H5          9      1           2.24586960     -4.07789859      0.00000000
H5         10      1          -2.24586960     -4.07789859      0.00000000
[Charge] (Mulliken)
   0.0000000000000000     
   0.0000000000000000     
   0.0000000000000000     
   0.0000000000000000     
   0.0000000000000000     
   0.0000000000000000     
   0.0000000000000000     
   0.0000000000000000     
   0.0000000000000000     
   0.0000000000000000     
[GTO] (AU)
   1
   s   6
  3.047524880E+03  1.834737132E-03
  4.573695180E+02  1.403732281E-02
  1.039486850E+02  6.884262227E-02
  2.921015530E+01  2.321844432E-01
  9.286662960E+00  4.679413484E-01
  3.163926960E+00  3.623119853E-01
   s   3
  7.868272350E+00 -1.193324198E-01
  1.881288540E+00 -1.608541517E-01
  5.442492580E-01  1.143456438E+00
   s   1
  1.687144782E-01  1.000000000E+00
   p   3
  7.868272350E+00  6.899906659E-02
  1.881288540E+00  3.164239610E-01
  5.442492580E-01  7.443082909E-01
   p   1
  1.687144782E-01  1.000000000E+00
   d   1
  8.000000000E-01  1.000000000E+00
 
   2
   s   6
  3.047524880E+03  1.834737132E-03
  4.573695180E+02  1.403732281E-02
  1.039486850E+02  6.884262227E-02
  2.921015530E+01  2.321844432E-01
  9.286662960E+00  4.679413484E-01
  3.163926960E+00  3.623119853E-01
   s   3
  7.868272350E+00 -1.193324198E-01
  1.881288540E+00 -1.608541517E-01
  5.442492580E-01  1.143456438E+00
   s   1
  1.687144782E-01  1.000000000E+00
   p   3
  7.868272350E+00  6.899906659E-02
  1.881288540E+00  3.164239610E-01
  5.442492580E-01  7.443082909E-01
   p   1
  1.687144782E-01  1.000000000E+00
   d   1
  8.000000000E-01  1.000000000E+00
 
   3
   s   6
  3.047524880E+03  1.834737132E-03
  4.573695180E+02  1.403732281E-02
  1.039486850E+02  6.884262227E-02
  2.921015530E+01  2.321844432E-01
  9.286662960E+00  4.679413484E-01
  3.163926960E+00  3.623119853E-01
   s   3
  7.868272350E+00 -1.193324198E-01
  1.881288540E+00 -1.608541517E-01
  5.442492580E-01  1.143456438E+00
   s   1
  1.687144782E-01  1.000000000E+00
   p   3
  7.868272350E+00  6.899906659E-02
  1.881288540E+00  3.164239610E-01
  5.442492580E-01  7.443082909E-01
   p   1
  1.687144782E-01  1.000000000E+00
   d   1
  8.000000000E-01  1.000000000E+00
 
   4
   s   6
  3.047524880E+03  1.834737132E-03
  4.573695180E+02  1.403732281E-02
  1.039486850E+02  6.884262227E-02
  2.921015530E+01  2.321844432E-01
  9.286662960E+00  4.679413484E-01
  3.163926960E+00  3.623119853E-01
   s   3
  7.868272350E+00 -1.193324198E-01
  1.881288540E+00 -1.608541517E-01
  5.442492580E-01  1.143456438E+00
   s   1
  1.687144782E-01  1.000000000E+00
   p   3
  7.868272350E+00  6.899906659E-02
  1.881288540E+00  3.164239610E-01
  5.442492580E-01  7.443082909E-01
   p   1
  1.687144782E-01  1.000000000E+00
   d   1
  8.000000000E-01  1.000000000E+00
 
   5
   s   3
  1.873113696E+01  3.349460434E-02
  2.825394365E+00  2.347269535E-01
  6.401216923E-01  8.137573261E-01
   s   1
  1.612777588E-01  1.000000000E+00
 
   6
   s   3
  1.873113696E+01  3.349460434E-02
  2.825394365E+00  2.347269535E-01
  6.401216923E-01  8.137573261E-01
   s   1
  1.612777588E-01  1.000000000E+00
 
   7
   s   6
  3.047524880E+03  1.834737132E-03
  4.573695180E+02  1.403732281E-02
  1.039486850E+02  6.884262227E-02
  2.921015530E+01  2.321844432E-01
  9.286662960E+00  4.679413484E-01
  3.163926960E+00  3.623119853E-01
   s   3
  7.868272350E+00 -1.193324198E-01
  1.881288540E+00 -1.608541517E-01
  5.442492580E-01  1.143456438E+00
   s   1
  1.687144782E-01  1.000000000E+00
   p   3
  7.868272350E+00  6.899906659E-02
  1.881288540E+00  3.164239610E-01
  5.442492580E-01  7.443082909E-01
   p   1
  1.687144782E-01  1.000000000E+00
   d   1
  8.000000000E-01  1.000000000E+00
 
   8
   s   6
  3.047524880E+03  1.834737132E-03
  4.573695180E+02  1.403732281E-02
  1.039486850E+02  6.884262227E-02
  2.921015530E+01  2.321844432E-01
  9.286662960E+00  4.679413484E-01
  3.163926960E+00  3.623119853E-01
   s   3
  7.868272350E+00 -1.193324198E-01
  1.881288540E+00 -1.608541517E-01
  5.442492580E-01  1.143456438E+00
   s   1
  1.687144782E-01  1.000000000E+00
   p   3
  7.868272350E+00  6.899906659E-02
  1.881288540E+00  3.164239610E-01
  5.442492580E-01  7.443082909E-01
   p   1
  1.687144782E-01  1.000000000E+00
   d   1
  8.000000000E-01  1.000000000E+00
 
   9
   s   3
  1.873113696E+01  3.349460434E-02
  2.825394365E+00  2.347269535E-01
  6.401216923E-01  8.137573261E-01
   s   1
  1.612777588E-01  1.000000000E+00
 
  10
   s   3
  1.873113696E+01  3.349460434E-02
  2.825394365E+00  2.347269535E-01
  6.401216923E-01  8.137573261E-01
   s   1
  1.612777588E-01  1.000000000E+00
 
[MO]
Sym=     1a1 
Ene=   -11.3590
Spin= Alpha
Occup=    2.00000
   1         0.36885569
   2         0.00831452
   3         0.00136158
   4        -0.00025445
   5        -0.00145258
   6         0.00000000
   7        -0.00015890
   8        -0.00090714
   9         0.00000000
  10         0.00000000
  11         0.00000000
  12         0.00000000
  13         0.00000000
  14         0.00000000
  15         0.00000000
  16         0.36885569
  17         0.00831452
  18         0.00136158
  19         0.00025445
  20        -0.00145258
  21         0.00000000
  22         0.00015890
  23        -0.00090714
  24         0.00000000
  25         0.00000000
  26         0.00000000
  27         0.00000000
  28        -0.00000000
  29         0.00000000
  30         0.00000000
  31         0.45028667
  32         0.00994565
  33         0.00143456
  34        -0.00128052
  35         0.00005965
  36         0.00000000
  37        -0.00079968
  38         0.00003725
  39         0.00000000
  40        -0.00000000
  41        -0.00000000
  42        -0.00000000
  43        -0.00000000
  44         0.00000000
  45         0.00000000
  46         0.45028667
  47         0.00994565
  48         0.00143456
  49         0.00128052
  50         0.00005965
  51         0.00000000
  52         0.00079968
  53         0.00003725
  54         0.00000000
  55        -0.00000000
  56        -0.00000000
  57        -0.00000000
  58         0.00000000
  59         0.00000000
  60         0.00000000
  61         0.00091332
  62         0.00101976
  63         0.00091332
  64         0.00101976
  65         0.39126215
  66         0.00882310
  67         0.00144819
  68        -0.00053508
  69         0.00130491
  70         0.00000000
  71        -0.00033416
  72         0.00081491
  73         0.00000000
  74        -0.00000000
  75        -0.00000000
  76        -0.00000000
  77        -0.00000000
  78         0.00000000
  79         0.00000000
  80         0.39126215
  81         0.00882310
  82         0.00144819
  83         0.00053508
  84         0.00130491
  85         0.00000000
  86         0.00033416
  87         0.00081491
  88         0.00000000
  89        -0.00000000
  90        -0.00000000
  91        -0.00000000
  92         0.00000000
  93         0.00000000
  94         0.00000000
  95         0.00097896
  96         0.00109305
  97         0.00097896
  98         0.00109305
Sym=     2a1 
Ene=   -11.3460
Spin= Alpha
Occup=    2.00000
   1        -0.45419330
   2        -0.00896544
   3        -0.00025961
   4         0.00061711
   5        -0.00000960
   6         0.00000000
   7         0.00038539
   8        -0.00000599
   9         0.00000000
  10        -0.00000000
  11        -0.00000000
  12        -0.00000000
  13         0.00000000
  14         0.00000000
  15         0.00000000
  16        -0.45419330
  17        -0.00896544
  18        -0.00025961
  19        -0.00061711
  20        -0.00000960
  21         0.00000000
  22        -0.00038539
  23        -0.00000599
  24         0.00000000
  25        -0.00000000
  26        -0.00000000
  27        -0.00000000
  28        -0.00000000
  29         0.00000000
  30         0.00000000
  31        -0.08778108
  32        -0.00158803
  33         0.00011093
  34        -0.00009417
  35        -0.00252105
  36         0.00000000
  37        -0.00005881
  38        -0.00157440
  39         0.00000000
  40        -0.00000000
  41        -0.00000000
  42        -0.00000000
  43        -0.00000000
  44         0.00000000
  45         0.00000000
  46        -0.08778108
  47        -0.00158803
  48         0.00011093
  49         0.00009417
  50        -0.00252105
  51         0.00000000
  52         0.00005881
  53        -0.00157440
  54         0.00000000
  55        -0.00000000
  56        -0.00000000
  57        -0.00000000
  58         0.00000000
  59         0.00000000
  60         0.00000000
  61        -0.00101437
  62        -0.00113259
  63        -0.00101437
  64        -0.00113259
  65         0.52911088
  66         0.01033338
  67         0.00017899
  68        -0.00122136
  69        -0.00042909
  70         0.00000000
  71        -0.00076274
  72        -0.00026797
  73         0.00000000
  74        -0.00000000
  75        -0.00000000
  76        -0.00000000
  77        -0.00000000
  78         0.00000000
  79         0.00000000
  80         0.52911088
  81         0.01033338
  82         0.00017899
  83         0.00122136
  84        -0.00042909
  85         0.00000000
  86         0.00076274
  87        -0.00026797
  88         0.00000000
  89        -0.00000000
  90        -0.00000000
  91        -0.00000000
  92         0.00000000
  93         0.00000000
  94         0.00000000
  95         0.00115745
  96         0.00129235
  97         0.00115745
  98         0.00129235
Sym=     3a1 
Ene=   -11.3290
Spin= Alpha
Occup=    2.00000
   1         0.38941782
   2         0.00654901
   3        -0.00104420
   4        -0.00114953
   5         0.00132894
   6         0.00000000
   7        -0.00071788
   8         0.00082992
   9         0.00000000
  10        -0.00000000
  11        -0.00000000
  12        -0.00000000
  13         0.00000000
  14         0.00000000
  15         0.00000000
  16         0.38941782
  17         0.00654901
  18        -0.00104420
  19         0.00114953
  20         0.00132894
  21         0.00000000
  22         0.00071788
  23         0.00082992
  24         0.00000000
  25        -0.00000000
  26        -0.00000000
  27        -0.00000000
  28        -0.00000000
  29         0.00000000
  30         0.00000000
  31        -0.53307979
  32        -0.00860037
  33         0.00183543
  34        -0.00082102
  35         0.00045910
  36         0.00000000
  37        -0.00051272
  38         0.00028671
  39         0.00000000
  40         0.00000000
  41         0.00000000
  42         0.00000000
  43        -0.00000000
  44         0.00000000
  45         0.00000000
  46        -0.53307979
  47        -0.00860037
  48         0.00183543
  49         0.00082102
  50         0.00045910
  51         0.00000000
  52         0.00051272
  53         0.00028671
  54         0.00000000
  55         0.00000000
  56         0.00000000
  57         0.00000000
  58         0.00000000
  59         0.00000000
  60         0.00000000
  61         0.00073266
  62         0.00081805
  63         0.00073266
  64         0.00081805
  65         0.24605857
  66         0.00400134
  67        -0.00081203
  68        -0.00102568
  69        -0.00110538
  70         0.00000000
  71        -0.00064054
  72        -0.00069031
  73         0.00000000
  74         0.00000000
  75         0.00000000
  76         0.00000000
  77         0.00000000
  78         0.00000000
  79         0.00000000
  80         0.24605857
  81         0.00400134
  82        -0.00081203
  83         0.00102568
  84        -0.00110538
  85         0.00000000
  86         0.00064054
  87        -0.00069031
  88         0.00000000
  89         0.00000000
  90         0.00000000
  91         0.00000000
  92        -0.00000000
  93         0.00000000
  94         0.00000000
  95         0.00042487
  96         0.00047439
  97         0.00042487
  98         0.00047439
Sym=     4a1 
Ene=    -1.7259
Spin= Alpha
Occup=    2.00000
   1        -0.09293871
   2         0.11177062
   3         0.12643021
   4        -0.02944414
   5        -0.04288590
   6         0.00000000
   7        -0.01838785
   8        -0.02678222
   9         0.00000000
  10        -0.00000000
  11        -0.00000000
  12        -0.00000000
  13        -0.00000000
  14         0.00000000
  15         0.00000000
  16        -0.09293871
  17         0.11177062
  18         0.12643021
  19         0.02944414
  20        -0.04288590
  21         0.00000000
  22         0.01838785
  23        -0.02678222
  24         0.00000000
  25        -0.00000000
  26        -0.00000000
  27        -0.00000000
  28         0.00000000
  29         0.00000000
  30         0.00000000
  31        -0.09628935
  32         0.11456394
  33         0.12961190
  34        -0.05936414
  35        -0.00171559
  36         0.00000000
  37        -0.03707288
  38        -0.00107138
  39         0.00000000
  40         0.00000000
  41         0.00000000
  42         0.00000000
  43         0.00000000
  44         0.00000000
  45         0.00000000
  46        -0.09628935
  47         0.11456394
  48         0.12961190
  49         0.05936414
  50        -0.00171559
  51         0.00000000
  52         0.03707288
  53        -0.00107138
  54         0.00000000
  55         0.00000000
  56         0.00000000
  57         0.00000000
  58        -0.00000000
  59         0.00000000
  60         0.00000000
  61         0.03361628
  62         0.03753432
  63         0.03361628
  64         0.03753432
  65        -0.10254236
  66         0.12167502
  67         0.13766293
  68        -0.03107187
  69         0.04194255
  70         0.00000000
  71        -0.01940437
  72         0.02619310
  73         0.00000000
  74        -0.00000000
  75        -0.00000000
  76        -0.00000000
  77        -0.00000000
  78         0.00000000
  79         0.00000000
  80        -0.10254236
  81         0.12167502
  82         0.13766293
  83         0.03107187
  84         0.04194255
  85         0.00000000
  86         0.01940437
  87         0.02619310
  88         0.00000000
  89        -0.00000000
  90        -0.00000000
  91        -0.00000000
  92         0.00000000
  93         0.00000000
  94         0.00000000
  95         0.03748409
  96         0.04185292
  97         0.03748409
  98         0.04185292
Sym=     5a1 
Ene=    -1.3483
Spin= Alpha
Occup=    2.00000
   1        -0.10698820
   2         0.13952732
   3         0.15763411
   4        -0.02686337
   5         0.03612555
   6         0.00000000
   7        -0.01677616
   8         0.02256039
   9         0.00000000
  10        -0.00000000
  11         0.00000000
  12        -0.00000000
  13        -0.00000000
  14         0.00000000
  15         0.00000000
  16        -0.10698820
  17         0.13952732
  18         0.15763411
  19         0.02686337
  20         0.03612555
  21         0.00000000
  22         0.01677616
  23         0.02256039
  24         0.00000000
  25        -0.00000000
  26         0.00000000
  27        -0.00000000
  28         0.00000000
  29         0.00000000
  30         0.00000000
  31        -0.00782537
  32         0.00965417
  33         0.01091606
  34        -0.00210307
  35         0.09591048
  36         0.00000000
  37        -0.00131337
  38         0.05989605
  39         0.00000000
  40         0.00000000
  41         0.00000000
  42         0.00000000
  43         0.00000000
  44         0.00000000
  45         0.00000000
  46        -0.00782537
  47         0.00965417
  48         0.01091606
  49         0.00210307
  50         0.09591048
  51         0.00000000
  52         0.00131337
  53         0.05989605
  54         0.00000000
  55         0.00000000
  56         0.00000000
  57         0.00000000
  58        -0.00000000
  59         0.00000000
  60         0.00000000
  61         0.07773452
  62         0.08679462
  63         0.07773452
  64         0.08679462
  65         0.10522315
  66        -0.13568276
  67        -0.15331595
  68         0.02956601
  69         0.04580616
  70         0.00000000
  71         0.01846396
  72         0.02860592
  73         0.00000000
  74         0.00000000
  75         0.00000000
  76         0.00000000
  77         0.00000000
  78         0.00000000
  79         0.00000000
  80         0.10522315
  81        -0.13568276
  82        -0.15331595
  83        -0.02956601
  84         0.04580616
  85         0.00000000
  86        -0.01846396
  87         0.02860592
  88         0.00000000
  89         0.00000000
  90         0.00000000
  91         0.00000000
  92        -0.00000000
  93         0.00000000
  94         0.00000000
  95        -0.07698945
  96        -0.08596270
  97        -0.07698945
  98        -0.08596270
Sym=     6a1 
Ene=    -0.9813
Spin= Alpha
Occup=    2.00000
   1        -0.03595214
   2         0.06111408
   3         0.06881147
   4        -0.01378047
   5         0.16286592
   6         0.00000000
   7        -0.00860589
   8         0.10170968
   9         0.00000000
  10        -0.00000000
  11        -0.00000000
  12         0.00000000
  13        -0.00000000
  14         0.00000000
  15         0.00000000
  16        -0.03595214
  17         0.06111408
  18         0.06881147
  19         0.01378047
  20         0.16286592
  21         0.00000000
  22         0.00860589
  23         0.10170968
  24         0.00000000
  25        -0.00000000
  26        -0.00000000
  27         0.00000000
  28         0.00000000
  29         0.00000000
  30         0.00000000
  31         0.07095197
  32        -0.08607615
  33        -0.09735241
  34         0.04370811
  35         0.00655609
  36         0.00000000
  37         0.02729569
  38         0.00409428
  39         0.00000000
  40         0.00000000
  41         0.00000000
  42         0.00000000
  43        -0.00000000
  44         0.00000000
  45         0.00000000
  46         0.07095197
  47        -0.08607615
  48        -0.09735241
  49        -0.04370811
  50         0.00655609
  51         0.00000000
  52        -0.02729569
  53         0.00409428
  54         0.00000000
  55         0.00000000
  56         0.00000000
  57         0.00000000
  58         0.00000000
  59         0.00000000
  60         0.00000000
  61         0.10731334
  62         0.11982090
  63         0.10731334
  64         0.11982090
  65        -0.03364047
  66         0.05534029
  67         0.06233370
  68        -0.01740604
  69        -0.16433537
  70         0.00000000
  71        -0.01087006
  72        -0.10262735
  73         0.00000000
  74         0.00000000
  75        -0.00000000
  76        -0.00000000
  77         0.00000000
  78         0.00000000
  79         0.00000000
  80        -0.03364047
  81         0.05534029
  82         0.06233370
  83         0.01740604
  84        -0.16433537
  85         0.00000000
  86         0.01087006
  87        -0.10262735
  88         0.00000000
  89         0.00000000
  90        -0.00000000
  91        -0.00000000
  92        -0.00000000
  93         0.00000000
  94         0.00000000
  95         0.09953269
  96         0.11113340
  97         0.09953269
  98         0.11113340
Sym=     7a1 
Ene=    -0.7782
Spin= Alpha
Occup=    2.00000
   1         0.00869417
   2        -0.00431105
   3        -0.00498584
   4         0.19403523
   5        -0.00942015
   6         0.00000000
   7         0.12117490
   8        -0.00588288
   9         0.00000000
  10         0.00000000
  11        -0.00000000
  12        -0.00000000
  13         0.00000000
  14         0.00000000
  15         0.00000000
  16         0.00869417
  17        -0.00431105
  18        -0.00498584
  19        -0.19403523
  20        -0.00942015
  21         0.00000000
  22        -0.12117490
  23        -0.00588288
  24         0.00000000
  25         0.00000000
  26        -0.00000000
  27        -0.00000000
  28        -0.00000000
  29         0.00000000
  30         0.00000000
  31        -0.08570540
  32         0.15186485
  33         0.17091465
  34         0.17288875
  35         0.00781923
  36         0.00000000
  37         0.10796894
  38         0.00488311
  39         0.00000000
  40        -0.00000000
  41        -0.00000000
  42        -0.00000000
  43         0.00000000
  44         0.00000000
  45         0.00000000
  46        -0.08570540
  47         0.15186485
  48         0.17091465
  49        -0.17288875
  50         0.00781923
  51         0.00000000
  52        -0.10796894
  53         0.00488311
  54         0.00000000
  55        -0.00000000
  56        -0.00000000
  57        -0.00000000
  58        -0.00000000
  59         0.00000000
  60         0.00000000
  61         0.03002740
  62         0.03352715
  63         0.03002740
  64         0.03352715
  65         0.01834326
  66        -0.01266593
  67        -0.01449438
  68         0.18153924
  69        -0.02148423
  70         0.00000000
  71         0.11337116
  72        -0.01341689
  73         0.00000000
  74         0.00000000
  75        -0.00000000
  76         0.00000000
  77        -0.00000000
  78         0.00000000
  79         0.00000000
  80         0.01834326
  81        -0.01266593
  82        -0.01449438
  83        -0.18153924
  84        -0.02148423
  85         0.00000000
  86        -0.11337116
  87        -0.01341689
  88         0.00000000
  89         0.00000000
  90        -0.00000000
  91         0.00000000
  92         0.00000000
  93         0.00000000
  94         0.00000000
  95         0.04904065
  96         0.05475643
  97         0.04904065
  98         0.05475643
Sym=     8a1 
Ene=    -0.6228
Spin= Alpha
Occup=    2.00000
   1         0.03597821
   2        -0.04928847
   3        -0.05564589
   4        -0.06167918
   5         0.18886729
   6         0.00000000
   7        -0.03851862
   8         0.11794752
   9         0.00000000
  10        -0.00000000
  11        -0.00000000
  12        -0.00000000
  13         0.00000000
  14         0.00000000
  15         0.00000000
  16         0.03597821
  17        -0.04928847
  18        -0.05564589
  19         0.06167918
  20         0.18886729
  21         0.00000000
  22         0.03851862
  23         0.11794752
  24         0.00000000
  25        -0.00000000
  26        -0.00000000
  27        -0.00000000
  28        -0.00000000
  29         0.00000000
  30         0.00000000
  31        -0.00151780
  32         0.00917355
  33         0.01024594
  34         0.01032917
  35        -0.24163394
  36         0.00000000
  37         0.00645056
  38        -0.15090027
  39         0.00000000
  40         0.00000000
  41        -0.00000000
  42         0.00000000
  43        -0.00000000
  44         0.00000000
  45         0.00000000
  46        -0.00151780
  47         0.00917355
  48         0.01024594
  49        -0.01032917
  50        -0.24163394
  51         0.00000000
  52        -0.00645056
  53        -0.15090027
  54         0.00000000
  55         0.00000000
  56        -0.00000000
  57         0.00000000
  58         0.00000000
  59         0.00000000
  60         0.00000000
  61         0.08456926
  62         0.09442595
  63         0.08456926
  64         0.09442595
  65        -0.02758688
  66         0.04375650
  67         0.04930719
  68         0.09782839
  69         0.18942572
  70         0.00000000
  71         0.06109378
  72         0.11829626
  73         0.00000000
  74         0.00000000
  75         0.00000000
  76         0.00000000
  77        -0.00000000
  78         0.00000000
  79         0.00000000
  80        -0.02758688
  81         0.04375650
  82         0.04930719
  83        -0.09782839
  84         0.18942572
  85         0.00000000
  86        -0.06109378
  87         0.11829626
  88         0.00000000
  89         0.00000000
  90         0.00000000
  91         0.00000000
  92         0.00000000
  93         0.00000000
  94         0.00000000
  95        -0.06545148
  96        -0.07307997
  97        -0.06545148
  98        -0.07307997
Sym=     9a1 
Ene=    -0.5880
Spin= Alpha
Occup=    2.00000
   1        -0.02574555
   2         0.05338521
   3         0.05998800
   4        -0.25401903
   5        -0.06927674
   6         0.00000000
   7        -0.15863475
   8        -0.04326329
   9         0.00000000
  10        -0.00000000
  11         0.00000000
  12        -0.00000000
  13        -0.00000000
  14         0.00000000
  15         0.00000000
  16        -0.02574555
  17         0.05338521
  18         0.05998800
  19         0.25401903
  20        -0.06927674
  21         0.00000000
  22         0.15863475
  23        -0.04326329
  24         0.00000000
  25        -0.00000000
  26         0.00000000
  27        -0.00000000
  28         0.00000000
  29         0.00000000
  30         0.00000000
  31         0.00032747
  32        -0.00051765
  33        -0.00058334
  34        -0.01702384
  35        -0.05532486
  36         0.00000000
  37        -0.01063138
  38        -0.03455035
  39         0.00000000
  40         0.00000000
  41        -0.00000000
  42         0.00000000
  43         0.00000000
  44         0.00000000
  45         0.00000000
  46         0.00032747
  47        -0.00051765
  48        -0.00058334
  49         0.01702384
  50        -0.05532486
  51         0.00000000
  52         0.01063138
  53        -0.03455035
  54         0.00000000
  55         0.00000000
  56        -0.00000000
  57         0.00000000
  58        -0.00000000
  59         0.00000000
  60         0.00000000
  61        -0.08258956
  62        -0.09221551
  63        -0.08258956
  64        -0.09221551
  65         0.03505907
  66        -0.06101516
  67        -0.06868223
  68         0.25555661
  69        -0.07477550
  70         0.00000000
  71         0.15959497
  72        -0.04669726
  73         0.00000000
  74        -0.00000000
  75        -0.00000000
  76        -0.00000000
  77        -0.00000000
  78         0.00000000
  79         0.00000000
  80         0.03505907
  81        -0.06101516
  82        -0.06868223
  83        -0.25555661
  84        -0.07477550
  85         0.00000000
  86        -0.15959497
  87        -0.04669726
  88         0.00000000
  89        -0.00000000
  90        -0.00000000
  91        -0.00000000
  92         0.00000000
  93         0.00000000
  94         0.00000000
  95         0.09645937
  96         0.10770188
  97         0.09645937
  98         0.10770188
Sym=    10a1 
Ene=    -0.3330
Spin= Alpha
Occup=    0.00000
   1         0.00315415
   2        -0.03439170
   3        -0.03835782
   4         0.23169726
   5        -0.03172348
   6         0.00000000
   7         0.14469482
   8        -0.01981130
   9         0.00000000
  10        -0.00000000
  11         0.00000000
  12        -0.00000000
  13        -0.00000000
  14         0.00000000
  15         0.00000000
  16         0.00315415
  17        -0.03439170
  18        -0.03835782
  19        -0.23169726
  20        -0.03172348
  21         0.00000000
  22        -0.14469482
  23        -0.01981130
  24         0.00000000
  25        -0.00000000
  26         0.00000000
  27        -0.00000000
  28         0.00000000
  29         0.00000000
  30         0.00000000
  31         0.02597969
  32        -0.12210422
  33        -0.13650193
  34        -0.41240217
  35         0.01759755
  36         0.00000000
  37        -0.25754494
  38         0.01098966
  39         0.00000000
  40         0.00000000
  41         0.00000000
  42         0.00000000
  43        -0.00000000
  44         0.00000000
  45         0.00000000
  46         0.02597969
  47        -0.12210422
  48        -0.13650193
  49         0.41240217
  50         0.01759755
  51         0.00000000
  52         0.25754494
  53         0.01098966
  54         0.00000000
  55         0.00000000
  56         0.00000000
  57         0.00000000
  58         0.00000000
  59         0.00000000
  60         0.00000000
  61         0.08741282
  62         0.09760094
  63         0.08741282
  64         0.09760094
  65         0.00651899
  66        -0.02701076
  67        -0.03021222
  68         0.20089650
  69         0.04025279
  70         0.00000000
  71         0.12545976
  72         0.02513785
  73         0.00000000
  74        -0.00000000
  75         0.00000000
  76        -0.00000000
  77         0.00000000
  78         0.00000000
  79         0.00000000
  80         0.00651899
  81        -0.02701076
  82        -0.03021222
  83        -0.20089650
  84         0.04025279
  85         0.00000000
  86        -0.12545976
  87         0.02513785
  88         0.00000000
  89        -0.00000000
  90         0.00000000
  91        -0.00000000
  92        -0.00000000
  93         0.00000000
  94         0.00000000
  95         0.09108279
  96         0.10169865
  97         0.09108279
  98         0.10169865
Sym=    11a1 
Ene=    -0.1399
Spin= Alpha
Occup=    0.00000
   1         0.07376637
   2        -0.33431971
   3        -0.37379685
   4        -0.20244293
   5        -0.21225578
   6         0.00000000
   7        -0.12642551
   8        -0.13255362
   9         0.00000000
  10         0.00000000
  11        -0.00000000
  12         0.00000000
  13         0.00000000
  14         0.00000000
  15         0.00000000
  16         0.07376637
  17        -0.33431971
  18        -0.37379685
  19         0.20244293
  20        -0.21225578
  21         0.00000000
  22         0.12642551