   This run of MOLCAS is using the pymolcas driver

                             OPE
                             OPE          NMOL  CASOP  ENMOLC A   SO
                 OPE        NMOLC        AS  OP EN  MO LC     AS  OP
                OPENM       OL CA        SO  PE NM  OL CA     SOP EN
                OP EN      MO   LC       AS  OP ENMOL  CASO   PENMOL
                OP  EN     MO   LC       AS  OP EN     MO     LC ASO
               OP   E  NMOL  C  AS       OP  EN MO     LC     AS  OP
               OP  E   NMO   LC AS        OPEN  MO     LCASOP EN   M
               O  PEN   MO  LCA  SO
            OPE   NMO   L   CAS    OP
        OPENMOL  CASOP     ENMOL   CASOPE
     OPENMOLCA   SOPENMOLCASOPEN   MOLCASOPE
    OPENMOLCAS   OP           EN   MOL    CAS
    OPENMOLCAS       OP  ENM        O     LCA
    OPENMOLCAS    OPEN  MOLCASO     P  E  NMO
    OPENMOLCAS     OP               E  N  MOL
    OPENMOLCA   SO           PENM   O  L  CAS    OPEN    MO    LCAS
    OPENMOLCA   SOP           ENM   O  L  CAS   OP  EN  MOLC  AS   O
    OPENMOLCA   SOPE           NM      O  LCA   S      OP  EN MO
    OPENMOLC                AS         O  PEN   M      OL  CA  SOPE
    OPENMO        LCASOPE  NMOL        C  ASO   P      ENMOLC     AS
    OPE     NMO      LCA  SO     P     E   NM   OL  CA SO  PE N   MO
          OPENMOLCA            SOPE   NMO        LCAS  O    P  ENMO
     OPENMOLCASOPENMOLCASOPENMOLCASOPENMOLCA
        OPENMOLCASOPENMOLCASOPENMOLCASOPE
            OPENMOLCASOPENMOLCASOPENM
               OPENMOLCASOPENMOLCA        version: 24.02
                   OPENMOLCASO
                       OPE                tag: 428-g03afa2e9a

 OpenMolcas is free software; you can redistribute it and/or modify it
 under the terms of the GNU Lesser General Public License version 2.1.
 OpenMolcas is distributed in the hope that it will be useful, but it
 is provided "as is" and without any express or implied warranties.
 For more details see the full text of the license in the file
 LICENSE or in <http://www.gnu.org/licenses/>.

                 Copyright (C) The OpenMolcas Authors
           For the author list and the recommended citation,
                   consult the file CONTRIBUTORS.md

           *************************************************
           * pymolcas version py2.28                       *
           *   build c4a6d18ded8cb6cad61d2372a9abd97c      *
           *   (after the EMIL interpreter by V. Veryazov) *
           *************************************************

configuration info
------------------
Host name: DESKTOP-ET1S6F4 (Linux)
C Compiler ID: GNU
C flags: -std=gnu99 -fopenmp
Fortran Compiler ID: GNU
Fortran flags: -fno-aggressive-loop-optimizations -cpp -fdefault-integer-8 -fopenmp
Definitions: _WARNING_WORKAROUND_;_MOLCAS_;_I8_;_LINUX_
Parallel: OFF (GA=OFF)


   ----------------------------------------------------------------------
  |
  |           Project: ts
  |    Submitted from: /home/kenya/molcas_test/exercise_1
  |      Scratch area: /tmp/ts
  |   Save outputs to: /home/kenya/molcas_test/exercise_1
  |            Molcas: /home/kenya/OpenMolcas/builds/gnu_dev_omp
  |
  | Scratch area is NOT empty
  |
  |    MOLCAS_DRIVER = /home/kenya/OpenMolcas/builds/gnu_dev_omp/pymolcas
  |    MOLCAS_NPROCS = 1
  |    MOLCAS_SOURCE = /home/kenya/OpenMolcas
  | MOLCAS_STRUCTURE = 0
  |
   ----------------------------------------------------------------------

++ ---------   Input file   ---------

&GATEWAY
Coord = ts.Opt.xyz
  Basis = 6-31G*
  Group = Full
  NoCD

&SEWARD

&SCF

&MCKINLEY

-- ----------------------------------

--- Start Module: gateway at Sun Jul  7 16:08:29 2024 ---

()()()()()()()()()()()()()()()()()()()()()()()()()()()()()()()()()()()()()()()()()()()()()()()()()()

                                              &GATEWAY

                                   only a single process is used
                       available to each process: 2.0 GB of memory, 1 thread
                                            pid: 425193
()()()()()()()()()()()()()()()()()()()()()()()()()()()()()()()()()()()()()()()()()()()()()()()()()()

      Found SYMMETRY generators: xz z

++    Symmetry information:
      ---------------------

                    --- Group Generators ---
                    Rotation around the y-axis  
                    Reflection in the xy-plane  

                    Character Table for C2v

                             E   C2(y) s(xy) s(yz)
                    a1       1     1     1     1  y
                    b1       1    -1     1    -1  x, xy, Rz
                    a2       1     1    -1    -1  xz, Ry, I
                    b2       1    -1    -1     1  z, yz, Rx
--


++    Basis set information:
      ----------------------


      Basis set label: C.6-31G**....

      Electronic valence basis set:
      ------------------
      Associated Effective Charge   6.000000 au
      Associated Actual Charge      6.000000 au
      Nuclear Model: Point charge

      Shell  nPrim  nBasis  Cartesian Spherical Contaminant
         s      10       3        X                  
         p       4       2        X                  
         d       1       1        X                  


      Basis set label: H.6-31G....

      Electronic valence basis set:
      ------------------
      Associated Effective Charge   1.000000 au
      Associated Actual Charge      1.000000 au
      Nuclear Model: Point charge

      Shell  nPrim  nBasis  Cartesian Spherical Contaminant
         s       4       2        X                  


      Basis set label: C.6-31G**....

      Electronic valence basis set:
      ------------------
      Associated Effective Charge   6.000000 au
      Associated Actual Charge      6.000000 au
      Nuclear Model: Point charge

      Shell  nPrim  nBasis  Cartesian Spherical Contaminant
         s      10       3        X                  
         p       4       2        X                  
         d       1       1        X                  


      Basis set label: H.6-31G....

      Electronic valence basis set:
      ------------------
      Associated Effective Charge   1.000000 au
      Associated Actual Charge      1.000000 au
      Nuclear Model: Point charge

      Shell  nPrim  nBasis  Cartesian Spherical Contaminant
         s       4       2        X                  
--


++    Molecular structure info:
      -------------------------

                    ************************************************ 
                    **** Cartesian Coordinates / Bohr, Angstrom **** 
                    ************************************************ 

     Center  Label                x              y              z                     x              y              z
        1      C1               1.504608       2.235589       0.000000              0.796204       1.183023       0.000000
        2      C1              -1.504608       2.235589       0.000000             -0.796204       1.183023       0.000000
        3      C2               2.539082       0.018711       0.000000              1.343624       0.009902       0.000000
        4      C2              -2.539082       0.018711       0.000000             -1.343624       0.009902       0.000000
        5      H3              -2.224805       4.124735       0.000000             -1.177316       2.182716       0.000000
        6      H3               2.224805       4.124735       0.000000              1.177316       2.182716       0.000000
        7      C4               1.351866      -2.258198       0.000000              0.715377      -1.194987       0.000000
        8      C4              -1.351866      -2.258198       0.000000             -0.715377      -1.194987       0.000000
        9      H5               2.245870      -4.077899       0.000000              1.188463      -2.157931       0.000000
       10      H5              -2.245870      -4.077899       0.000000             -1.188463      -2.157931       0.000000

                    *************************************** 
                    *    InterNuclear Distances / Bohr    * 
                    *************************************** 

               1 C1            2 C1            3 C2            4 C2            5 H3            6 H3    
    1 C1       0.000000
    2 C1       3.009216        0.000000
    3 C2       2.446361        4.611505        0.000000
    4 C2       4.611505        2.446361        5.078164        0.000000
    5 H3       4.180597        2.021770        6.289201        4.118033        0.000000
    6 H3       2.021770        4.180597        4.118033        6.289201        4.449610        0.000000
    7 C4       4.496382        5.324807        2.567839        4.508192        7.316721        6.442348
    8 C4       5.324807        4.496382        4.508192        2.567839        6.442348        7.316721
    9 H5       6.356854        7.343446        4.107090        6.299046        9.341848        8.202660
   10 H5       7.343446        6.356854        6.299046        4.107090        8.202660        9.341848

               7 C4            8 C4            9 H5           10 H5    
    7 C4       0.000000
    8 C4       2.703733        0.000000
    9 H5       2.027450        4.031751        0.000000
   10 H5       4.031751        2.027450        4.491739        0.000000

                    ******************************************* 
                    *    InterNuclear Distances / Angstrom    * 
                    ******************************************* 

               1 C1            2 C1            3 C2            4 C2            5 H3            6 H3    
    1 C1       0.000000
    2 C1       1.592409        0.000000
    3 C2       1.294559        2.440303        0.000000
    4 C2       2.440303        1.294559        2.687249        0.000000
    5 H3       2.212277        1.069875        3.328102        2.179169        0.000000
    6 H3       1.069875        2.212277        2.179169        3.328102        2.354632        0.000000
    7 C4       2.379383        2.817766        1.358842        2.385632        3.871842        3.409144
    8 C4       2.817766        2.379383        2.385632        1.358842        3.409144        3.871842
    9 H5       3.363902        3.885985        2.173378        3.333311        4.943493        4.340661
   10 H5       3.885985        3.363902        3.333311        2.173378        4.340661        4.943493

               7 C4            8 C4            9 H5           10 H5    
    7 C4       0.000000
    8 C4       1.430754        0.000000
    9 H5       1.072880        2.133511        0.000000
   10 H5       2.133511        1.072880        2.376926        0.000000

                    ************************************** 
                    *    Valence Bond Angles / Degree    * 
                    ************************************** 
                          Atom centers                 Phi
                      3 C2       1 C1       6 H3       134.12
                      4 C2       2 C1       5 H3       134.12
                      1 C1       3 C2       7 C4       127.45
                      2 C1       4 C2       8 C4       127.45
                      3 C2       7 C4       8 C4       117.54
                      3 C2       7 C4       9 H5       126.30
                      8 C4       7 C4       9 H5       116.16
                      4 C2       8 C4       7 C4       117.54
                      4 C2       8 C4      10 H5       126.30
                      7 C4       8 C4      10 H5       116.16

           ***************************************************************
           *              Valence Dihedral Angles / Degree               *
           ***************************************************************
                    Atom centers                       Phi1     Phi2     Theta 
           6 H3       1 C1       3 C2       7 C4        134.12   127.45  -180.00
           5 H3       2 C1       4 C2       8 C4        134.12   127.45  -180.00
           1 C1       3 C2       7 C4       8 C4        127.45   117.54    -0.00
           1 C1       3 C2       7 C4       9 H5        127.45   126.30  -180.00
           2 C1       4 C2       8 C4       7 C4        127.45   117.54     0.00
           2 C1       4 C2       8 C4      10 H5        127.45   126.30  -180.00
           3 C2       7 C4       8 C4       4 C2        117.54   117.54    -0.00
           3 C2       7 C4       8 C4      10 H5        117.54   116.16  -180.00
           9 H5       7 C4       8 C4      10 H5        116.16   116.16    -0.00
           4 C2       8 C4       7 C4       9 H5        117.54   116.16  -180.00
--


            Nuclear Potential Energy            186.23618787 au

--- Stop Module: gateway at Sun Jul  7 16:08:30 2024 /rc=_RC_ALL_IS_WELL_ ---
*** files: xmldump
    saved to directory /home/kenya/molcas_test/exercise_1

--- Start Module: seward at Sun Jul  7 16:08:30 2024 ---

()()()()()()()()()()()()()()()()()()()()()()()()()()()()()()()()()()()()()()()()()()()()()()()()()()

                                              &SEWARD

                                   only a single process is used
                       available to each process: 2.0 GB of memory, 1 thread
                                            pid: 425196
()()()()()()()()()()()()()()()()()()()()()()()()()()()()()()()()()()()()()()()()()()()()()()()()()()

               SEWARD will generate:
                  Multipole Moment integrals up to order  2
                  Kinetic Energy integrals
                  Nuclear Attraction integrals (point charge)
                  One-Electron Hamiltonian integrals
                  Velocity integrals
                  Orbital angular momentum around ( 0.0000  0.0000  0.0000 )
                  Velocity quadrupole around ( 0.0000  0.0000  0.0000 )
                  Two-Electron Repulsion integrals

                   Integrals are discarded if absolute value <: 1.00E-14
                   Integral cutoff threshold is set to       <: 1.00E-16

                    Unitary symmetry adaptation


            Nuclear Potential Energy            186.23618787 au


      Basis set specifications :
      Symmetry species         a1   b1   a2   b2 
      Basis functions           37   37   12   12


      Input file to MOLDEN was generated!

--- Stop Module: seward at Sun Jul  7 16:08:31 2024 /rc=_RC_ALL_IS_WELL_ ---
*** files: ts.GssOrb ts.guessorb.molden xmldump
    saved to directory /home/kenya/molcas_test/exercise_1
--- Module seward spent 1 second ---

--- Start Module: scf at Sun Jul  7 16:08:31 2024 ---

()()()()()()()()()()()()()()()()()()()()()()()()()()()()()()()()()()()()()()()()()()()()()()()()()()

                                                &SCF

                                   only a single process is used
                       available to each process: 2.0 GB of memory, 1 thread
                                            pid: 425239
()()()()()()()()()()()()()()()()()()()()()()()()()()()()()()()()()()()()()()()()()()()()()()()()()()

++    Input section:
      --------------

      Header of the integral files:
      
       Integrals generated by Gateway/Seward, Sun Jul  7 16:08:30 2024


      Cartesian coordinates in Angstrom:
      -----------------------------------------------------
      No.  Label        X            Y            Z        
      -----------------------------------------------------
       1   C1         0.79620437   1.18302262   0.00000000
       2   C2         1.34362438   0.00990155   0.00000000
       3   H3        -1.17731607   2.18271563   0.00000000
       4   C4         0.71537694  -1.19498676   0.00000000
       5   H5         1.18846301  -2.15793100   0.00000000
       6   C1        -0.79620437   1.18302262   0.00000000
       7   C2        -1.34362438   0.00990155   0.00000000
       8   H3         1.17731607   2.18271563   0.00000000
       9   C4        -0.71537694  -1.19498676   0.00000000
      10   H5        -1.18846301  -2.15793100   0.00000000
      -----------------------------------------------------
      Nuclear repulsion energy =  186.23618787
--

++    Orbital specifications:
      -----------------------

      Symmetry species               1   2   3   4
                                    a1  b1  a2  b2
      Frozen orbitals                0   0   0   0
      Aufbau                        20
      Start temperature = 0.500
      End temperature   = 0.010
      Temperature Factor= 0.460
      Deleted orbitals               0   0   0   0
      Total number of orbitals      37  37  12  12
      Number of basis functions     37  37  12  12
--

      Molecular charge                           0.000

++    Optimization specifications:
      ----------------------------

      SCF Algorithm: Conventional
      Minimized density differences are used
      Number of density matrices in core                 5
      Maximum number of NDDO SCF iterations            400
      Maximum number of HF SCF iterations              400
      Threshold for SCF energy change             1.00E-09
      Threshold for density matrix                1.00E-04
      Threshold for Fock matrix                   1.50E-04
      Threshold for linear dependence             1.00E-09
      Threshold at which DIIS is turned on        1.50E-01
      Maximum depth in the DIIS procedure                5
      Maximum depth in the BFGS Hessian update          30
      Threshold at which QNR/C2DIIS is turned on  7.50E-02
      Threshold for Norm(delta) (QNR/C2DIIS)      1.00E-03
      All orbitals punched on: SCFORB
--

      Detected guessorb starting orbitals                                             


++ Convergence information
                                   SCF        iterations: Energy and convergence statistics

Iter     Tot. SCF        One-elec.       Two-elec.     Energy      Max Dij or  Max Fij      DNorm      TNorm      AccCon     Time
         Energy          Energy          Energy        Change      Delta Norm                                                in Sec.
   1  -219.102194992  -670.339895045   265.001512186   0.00E+00    7.88E-02*   4.75E-01*    9.94E+00   2.59E+02   None         0.
   2  -225.020216807  -666.301357391   255.044952717  -5.92E+00*   9.47E-02*   6.43E-02*    2.56E+01   2.54E+02   EDIIS        0.
   3  -228.502697974  -680.220235766   265.481349925  -3.48E+00*   1.08E-01*   1.09E-01*    5.64E+00   2.59E+02   EDIIS        0.
   4  -229.111115963  -675.448408275   260.101104445  -6.08E-01*   5.03E-02*   4.23E-02*    1.86E+00   2.57E+02   EDIIS        0.
   5  -229.257078691  -677.837927596   262.344661039  -1.46E-01*   4.87E-02*   2.22E-02*    9.06E-01   2.58E+02   EDIIS        0.
   6  -229.269276905  -676.799123081   261.293658309  -1.22E-02*   1.86E-02*   1.38E-02*    2.00E-01   2.57E+02   EDIIS        0.
   7  -229.270198317  -677.264632573   261.758246389  -9.21E-04*   1.94E-02*   1.18E-02*    1.16E-01   2.57E+02   EDIIS        0.

       Fermi aufbau procedure completed!
      nOcc=    9    8    1    2

   8  -229.270443983  -677.057069023   261.550437173  -2.46E-04*   9.83E-03*   7.10E-03*    4.24E-02   2.57E+02   EDIIS        0.
   9  -229.270576336  -677.137565177   261.630800974  -1.32E-04*   8.83E-03*   4.52E-03*    1.21E-02   2.57E+02   EDIIS        0.
  10  -229.270604706  -677.118477827   261.611685255  -2.84E-05*   3.65E-03*   2.68E-03*    5.98E-03   2.57E+02   EDIIS        0.
  11  -229.270627228  -677.122168531   261.615353436  -2.25E-05*   3.42E-03*   7.97E-04*    1.15E-03   2.57E+02   EDIIS        0.
  12  -229.270628923  -677.123433822   261.616617033  -1.69E-06*   8.78E-04*   3.38E-04*    3.29E-04   2.57E+02   c2DIIS       0.
  13  -229.270632463  -677.122875010   261.616054680  -3.54E-06*   4.27E-04    1.38E-04     4.37E-05   2.57E+02   QNRc2DIIS    0.
  14  -229.270632794  -677.122942845   261.616122184  -3.31E-07*   6.82E-04    8.46E-05     1.33E-05   2.57E+02   QNRc2DIIS    0.
  15  -229.270632980  -677.122892822   261.616071975  -1.86E-07*   5.23E-05    2.69E-05     4.59E-03   2.57E+02   QNRc2DIIS    0.
  16  -229.270632988  -677.122954720   261.616133865  -7.71E-09*   7.05E-06    5.24E-06     5.06E-03   2.57E+02   QNRc2DIIS    0.
  17  -229.270632988  -677.122960871   261.616140016  -2.12E-10    2.29E-05    3.09E-06     4.27E-03   2.57E+02   QNRc2DIIS    0.

       Convergence after  17 Macro Iterations
--

 *****************************************************************************************************************************
 *                                                                                                                           *
 *                                             SCF/KS-DFT Program, Final results                                             *
 *                                                                                                                           *
 *                                                                                                                           *
 *                                                                                                                           *
 *                                                       Final Results                                                       *
 *                                                                                                                           *
 *****************************************************************************************************************************

::    Total SCF energy                               -229.2706329881
      One-electron energy                            -677.1229608712
      Two-electron energy                             261.6161400162
      Nuclear repulsion energy                        186.2361878669
      Kinetic energy (interpolated)                   229.1131177300
      Virial theorem                                    1.0006875000
      Total spin, S(S+1)                                0.0000000000
      Total spin, S                                     0.0000000000
      Max non-diagonal density matrix element           0.0000282372
      Max non-diagonal Fock matrix element              0.0000043043


      All orbitals with orbital energies smaller than  E(LUMO)+0.5 are printed

++    Molecular orbitals:
      -------------------

      Title: SCF orbitals

      Molecular orbitals for symmetry species 1: a1 

          Orbital            1         2         3         4         5         6         7         8         9        10    
          Energy          -11.2659  -11.2656  -11.2428   -1.1617   -1.0185   -0.7966   -0.6547   -0.6418   -0.5423   -0.0009
          Occ. No.          2.0000    2.0000    2.0000    2.0000    2.0000    2.0000    2.0000    2.0000    2.0000    0.0000

        1 C1     1s         0.9934   -0.0489   -0.0443   -0.1213    0.1537   -0.0671    0.0171    0.0130    0.0239    0.0102
        2 C1     2s         0.0272   -0.0015   -0.0018    0.2300   -0.2945    0.1343   -0.0314   -0.0295   -0.0501    0.0117
        3 C1     *s        -0.0092    0.0006    0.0061    0.1509   -0.2451    0.1249   -0.0486   -0.0183   -0.0643   -0.2609
        4 C1     2px       -0.0001    0.0000   -0.0001   -0.0228    0.0321   -0.0792   -0.1413    0.2057    0.4342    0.2617
        5 C1     *px       -0.0007    0.0001    0.0001   -0.0095    0.0099   -0.0276   -0.0630    0.0889    0.2131    0.1929
        6 C1     2py        0.0001    0.0000    0.0003   -0.0886    0.0141    0.2869    0.3060    0.1188    0.1126   -0.0775
        7 C1     *py        0.0007   -0.0002   -0.0033   -0.0082   -0.0086    0.1153    0.1245    0.0538    0.0713   -0.0319
        8 C1     *200      -0.0016    0.0001   -0.0001    0.0036   -0.0070    0.0057    0.0011   -0.0046   -0.0117   -0.0168
        9 C1     *110      -0.0001   -0.0000    0.0002   -0.0016    0.0004    0.0095    0.0129   -0.0031   -0.0041    0.0245
       10 C1     *020      -0.0008    0.0001   -0.0001    0.0076   -0.0076    0.0056    0.0060    0.0043    0.0106    0.0167
       11 C1     *002      -0.0014    0.0000   -0.0000   -0.0064    0.0075   -0.0032    0.0005    0.0005   -0.0001    0.0004
       12 C2     1s         0.0449    0.0278    0.9943   -0.1358    0.0220    0.1154    0.0114   -0.0815   -0.0275    0.0469
       13 C2     2s         0.0007    0.0005    0.0274    0.2583   -0.0416   -0.2319   -0.0211    0.1671    0.0560   -0.0576
       14 C2     *s         0.0036    0.0031   -0.0155    0.1418   -0.0255   -0.1342   -0.0058    0.2034    0.0765   -0.2700
       15 C2     2px        0.0002    0.0002   -0.0011   -0.1032    0.0066    0.0566   -0.0370    0.1691    0.0888   -0.4427
       16 C2     *px       -0.0007   -0.0007    0.0040   -0.0110   -0.0023   -0.0170   -0.0191    0.0791    0.0489   -0.5520
       17 C2     2py       -0.0002    0.0002   -0.0001    0.0017   -0.1948    0.0126   -0.3708   -0.1010    0.1305    0.0334
       18 C2     *py        0.0017   -0.0015   -0.0003   -0.0028   -0.0123    0.0135   -0.0615   -0.0225    0.0366    0.0219
       19 C2     *200      -0.0002   -0.0002   -0.0013   -0.0004    0.0012    0.0006    0.0026   -0.0127   -0.0042    0.0030
       20 C2     *110      -0.0000   -0.0000    0.0000    0.0011    0.0163    0.0006    0.0241    0.0032    0.0163    0.0029
       21 C2     *020      -0.0001   -0.0002   -0.0005    0.0072    0.0002   -0.0040   -0.0013    0.0112    0.0032    0.0086
       22 C2     *002      -0.0001   -0.0001   -0.0013   -0.0071    0.0006    0.0044    0.0000   -0.0004    0.0004   -0.0033
       23 H3     1s        -0.0004    0.0000    0.0000    0.0454   -0.0997    0.1790    0.1243    0.0930    0.1473    0.1235
       24 H3     *s         0.0019    0.0001    0.0007    0.0037   -0.0195    0.0779    0.0841    0.0590    0.1101    0.3007
       25 C4     1s         0.0476    0.9939   -0.0305   -0.1385   -0.1538   -0.0546   -0.0135    0.0122   -0.0185    0.0062
       26 C4     2s         0.0011    0.0273   -0.0013    0.2660    0.2993    0.1095    0.0290   -0.0313    0.0415    0.0115
       27 C4     *s        -0.0001   -0.0088    0.0051    0.1678    0.2435    0.1057    0.0383    0.0106    0.0389   -0.1880
       28 C4     2px       -0.0000    0.0001   -0.0001   -0.0485   -0.0798   -0.1112    0.0620    0.4269   -0.3160    0.2173
       29 C4     *px        0.0001   -0.0008    0.0000   -0.0094   -0.0072   -0.0248    0.0288    0.1696   -0.1377    0.1209
       30 C4     2py       -0.0001    0.0001   -0.0004    0.0798   -0.0230   -0.2582    0.3492   -0.0736    0.0929    0.0877
       31 C4     *py        0.0002   -0.0008    0.0027    0.0081   -0.0154   -0.0959    0.1402   -0.0415    0.0560    0.0245
       32 C4     *200      -0.0001   -0.0013   -0.0002    0.0058    0.0090    0.0057   -0.0000   -0.0075    0.0085   -0.0132
       33 C4     *110      -0.0000    0.0001   -0.0003    0.0014   -0.0031   -0.0107    0.0108    0.0055    0.0030   -0.0238
       34 C4     *020       0.0000   -0.0010   -0.0002    0.0066    0.0031   -0.0002   -0.0054    0.0099   -0.0121    0.0159
       35 C4     *002      -0.0001   -0.0014   -0.0001   -0.0074   -0.0072   -0.0022   -0.0004   -0.0001    0.0005    0.0007
       36 H5     1s        -0.0000   -0.0003    0.0000    0.0536    0.1005    0.1367   -0.1541    0.1351   -0.1320    0.1076
       37 H5     *s         0.0003    0.0018    0.0006    0.0049    0.0177    0.0581   -0.1017    0.0852   -0.1050    0.2471

          Orbital           11        12        13    
          Energy            0.2557    0.2763    0.4468
          Occ. No.          0.0000    0.0000    0.0000

        1 C1     1s         0.0788    0.0489   -0.0537
        2 C1     2s        -0.1257   -0.0236   -0.0301
        3 C1     *s        -0.9776   -1.3952    1.8833
        4 C1     2px       -0.1537   -0.0867   -0.0524
        5 C1     *px       -0.4550   -0.4835    0.3786
        6 C1     2py       -0.1268   -0.2052   -0.0594
        7 C1     *py       -0.7730   -0.5763   -1.8668
        8 C1     *200      -0.0022   -0.0001    0.0118
        9 C1     *110      -0.0020    0.0003    0.0118
       10 C1     *020       0.0067   -0.0006   -0.0069
       11 C1     *002       0.0000    0.0037   -0.0059
       12 C2     1s        -0.0267   -0.0091    0.1502
       13 C2     2s         0.0578    0.0192   -0.1659
       14 C2     *s        -0.1082    0.0913   -4.8308
       15 C2     2px        0.0243   -0.0073    0.0331
       16 C2     *px        0.5677   -0.0465    1.7280
       17 C2     2py        0.0022    0.0268    0.0605
       18 C2     *py       -0.0418    0.4556    0.1077
       19 C2     *200       0.0090   -0.0009    0.0008
       20 C2     *110      -0.0028   -0.0203   -0.0014
       21 C2     *020      -0.0181    0.0012   -0.0218
       22 C2     *002       0.0034   -0.0000    0.0021
       23 H3     1s         0.0053   -0.0027   -0.0482
       24 H3     *s         1.6049    1.5262    0.7979
       25 C4     1s         0.0707   -0.0519   -0.0677
       26 C4     2s        -0.1188    0.0293   -0.0104
       27 C4     *s        -0.9284    1.4430    2.1589
       28 C4     2px       -0.1613    0.1086   -0.0328
       29 C4     *px       -0.4773    0.5858    0.6717
       30 C4     2py        0.0882   -0.2336    0.0554
       31 C4     *py        0.5885   -0.6942    1.7548
       32 C4     *200      -0.0019   -0.0006    0.0123
       33 C4     *110      -0.0005    0.0096   -0.0282
       34 C4     *020       0.0072    0.0008   -0.0075
       35 C4     *002      -0.0011   -0.0030   -0.0047
       36 H5     1s         0.0073   -0.0090    0.0197
       37 H5     *s         1.3889   -1.7508    0.4718

      Molecular orbitals for symmetry species 2: b1 

          Orbital            1         2         3         4         5         6         7         8         9        10    
          Energy          -11.2655  -11.2647  -11.2429   -1.0210   -0.8509   -0.6634   -0.5568   -0.2754    0.3025    0.3203
          Occ. No.          2.0000    2.0000    2.0000    2.0000    2.0000    2.0000    2.0000    2.0000    0.0000    0.0000

        1 C1     1s         0.9939   -0.0427   -0.0454   -0.1185    0.1254   -0.0585   -0.0081    0.0618    0.0677   -0.0992
        2 C1     2s         0.0273   -0.0011   -0.0019    0.2332   -0.2524    0.1182    0.0199   -0.1520   -0.1637    0.1188
        3 C1     *s        -0.0190   -0.0023    0.0118    0.1616   -0.2279    0.1276   -0.0062   -0.0851    0.0640    1.7705
        4 C1     2px       -0.0001   -0.0000   -0.0002    0.1026   -0.1269    0.0615    0.0318    0.1023   -0.0785   -0.0942
        5 C1     *px        0.0026    0.0007   -0.0010    0.0174   -0.0436    0.0251    0.0249    0.1687   -0.3346   -0.4841
        6 C1     2py       -0.0000   -0.0000    0.0003   -0.1203    0.0147    0.3349   -0.3011    0.0853   -0.1475    0.1471
        7 C1     *py        0.0035    0.0016   -0.0059    0.0141   -0.0445    0.1728   -0.1332   -0.1711   -2.1874    1.1040
        8 C1     *200      -0.0009    0.0001   -0.0002   -0.0065    0.0047   -0.0016    0.0013    0.0155    0.0010   -0.0091
        9 C1     *110      -0.0002    0.0000    0.0001   -0.0076    0.0026    0.0233   -0.0227   -0.0126   -0.0075    0.0072
       10 C1     *020      -0.0006    0.0001   -0.0001    0.0116   -0.0102    0.0099   -0.0093   -0.0143    0.0132    0.0065
       11 C1     *002      -0.0012    0.0001   -0.0001   -0.0052    0.0053   -0.0029    0.0004   -0.0009   -0.0055   -0.0003
       12 C2     1s         0.0457    0.0295    0.9943   -0.1816   -0.0084    0.0779    0.0139   -0.0650   -0.0109   -0.0047
       13 C2     2s         0.0007    0.0005    0.0278    0.3503    0.0193   -0.1595   -0.0309    0.1239    0.1505    0.0042
       14 C2     *s         0.0090    0.0085   -0.0220    0.2673    0.0091   -0.0541   -0.0303   -0.0409   -2.5693    0.0859
       15 C2     2px        0.0001    0.0001   -0.0011   -0.0920   -0.0123    0.0996    0.0206    0.5155   -0.0980    0.0064
       16 C2     *px       -0.0027   -0.0027    0.0063   -0.0213   -0.0034   -0.0009    0.0040    0.5395    1.0686    0.1006
       17 C2     2py       -0.0001    0.0001   -0.0001    0.0298   -0.3140   -0.0394    0.3455   -0.0095   -0.0012   -0.0723
       18 C2     *py        0.0020   -0.0016   -0.0006    0.0022   -0.0443   -0.0021    0.0831   -0.0225   -0.2118   -0.0397
       19 C2     *200      -0.0003   -0.0003   -0.0013   -0.0039    0.0005   -0.0031   -0.0008   -0.0121    0.0036    0.0002
       20 C2     *110      -0.0000   -0.0001    0.0000   -0.0008    0.0156    0.0049   -0.0251    0.0029   -0.0024   -0.0139
       21 C2     *020      -0.0002   -0.0003   -0.0005    0.0111    0.0020    0.0027    0.0003    0.0015   -0.0204   -0.0042
       22 C2     *002      -0.0002   -0.0001   -0.0012   -0.0081   -0.0006    0.0031    0.0003    0.0043    0.0089    0.0016
       23 H3     1s         0.0003    0.0001   -0.0001   -0.0562    0.1197   -0.2515    0.1727    0.0381   -0.0434   -0.0090
       24 H3     *s        -0.0014    0.0005   -0.0010    0.0006    0.0254   -0.1409    0.1377   -0.0149   -2.2417    1.6935
       25 C4     1s         0.0413    0.9946   -0.0321   -0.0929   -0.1350   -0.0540   -0.0050    0.0507    0.0650    0.0964
       26 C4     2s         0.0012    0.0277   -0.0013    0.1826    0.2733    0.1101    0.0041   -0.1293   -0.1663   -0.1326
       27 C4     *s        -0.0038   -0.0204    0.0113    0.1307    0.2409    0.1017    0.0350   -0.0788    0.0210   -1.6929
       28 C4     2px       -0.0000   -0.0002   -0.0002    0.1015    0.1661    0.0748   -0.0048    0.0392   -0.0865   -0.0187
       29 C4     *px        0.0012    0.0032   -0.0015    0.0157    0.0718    0.0466   -0.0140    0.1096   -0.6068    0.1161
       30 C4     2py        0.0000    0.0002   -0.0003    0.0963    0.0209   -0.2334   -0.3741   -0.0749    0.1155    0.1206
       31 C4     *py       -0.0016   -0.0038    0.0052    0.0022   -0.0376   -0.1440   -0.1965    0.1596    1.9585    1.2112
       32 C4     *200      -0.0001   -0.0007   -0.0003   -0.0042   -0.0038   -0.0003   -0.0005    0.0139    0.0031    0.0066
       33 C4     *110      -0.0000    0.0002   -0.0002    0.0076    0.0012   -0.0218   -0.0344    0.0091    0.0073    0.0080
       34 C4     *020       0.0001   -0.0007   -0.0003    0.0107    0.0111    0.0047    0.0087   -0.0130    0.0110   -0.0042
       35 C4     *002      -0.0000   -0.0012   -0.0001   -0.0046   -0.0060   -0.0023   -0.0009   -0.0009   -0.0054    0.0004
       36 H5     1s        -0.0001   -0.0003    0.0000    0.0497    0.1364    0.1938    0.2322   -0.0359    0.0332   -0.0070
       37 H5     *s        -0.0003    0.0012    0.0009    0.0074    0.0326    0.1005    0.1757    0.0152    2.0651    1.8142

          Orbital           11    
          Energy            0.4134
          Occ. No.          0.0000

        1 C1     1s         0.0786
        2 C1     2s        -0.0854
        3 C1     *s        -1.4499
        4 C1     2px        0.3856
        5 C1     *px        1.9153
        6 C1     2py        0.1187
        7 C1     *py        0.7182
        8 C1     *200       0.0183
        9 C1     *110       0.0076
       10 C1     *020      -0.0174
       11 C1     *002      -0.0020
       12 C2     1s         0.0257
       13 C2     2s        -0.0049
       14 C2     *s        -0.5712
       15 C2     2px       -0.0478
       16 C2     *px       -0.1412
       17 C2     2py       -0.0315
       18 C2     *py        0.4250
       19 C2     *200      -0.0026
       20 C2     *110       0.0434
       21 C2     *020       0.0121
       22 C2     *002      -0.0029
       23 H3     1s         0.0507
       24 H3     *s         1.0222
       25 C4     1s        -0.0584
       26 C4     2s         0.0953
       27 C4     *s         1.2134
       28 C4     2px       -0.0908
       29 C4     *px       -1.1267
       30 C4     2py        0.2361
       31 C4     *py        1.1793
       32 C4     *200      -0.0060
       33 C4     *110       0.0074
       34 C4     *020       0.0085
       35 C4     *002       0.0016
       36 H5     1s         0.0079
       37 H5     *s         1.2194

      Molecular orbitals for symmetry species 3: a2 

          Orbital            1         2         3    
          Energy           -0.3644    0.1021    0.3688
          Occ. No.          2.0000    0.0000    0.0000

        1 C1     2pz        0.3025   -0.3844    0.3176
        2 C1     *pz        0.2355   -0.5872    0.8914
        3 C1     *101       0.0193   -0.0190    0.0038
        4 C1     *011      -0.0226   -0.0024    0.0310
        5 C2     2pz        0.4354    0.0433   -0.3784
        6 C2     *pz        0.3039    0.0704   -1.0218
        7 C2     *101      -0.0210   -0.0014   -0.0078
        8 C2     *011       0.0066   -0.0476    0.0001
        9 C4     2pz        0.2073    0.4104    0.3378
       10 C4     *pz        0.1658    0.6544    0.9590
       11 C4     *101       0.0169    0.0264    0.0090
       12 C4     *011       0.0189    0.0030   -0.0271

      Molecular orbitals for symmetry species 4: b2 

          Orbital            1         2         3    
          Energy           -0.5147   -0.3357    0.1825
          Occ. No.          2.0000    2.0000    0.0000

        1 C1     2pz        0.2922   -0.3724   -0.2215
        2 C1     *pz        0.1929   -0.3248   -0.5293
        3 C1     *101      -0.0039    0.0122    0.0313
        4 C1     *011      -0.0168    0.0039   -0.0351
        5 C2     2pz        0.3092   -0.0511    0.4472
        6 C2     *pz        0.1641   -0.0394    0.8579
        7 C2     *101      -0.0217    0.0013    0.0014
        8 C2     *011       0.0021   -0.0340   -0.0038
        9 C4     2pz        0.3099    0.4006   -0.1882
       10 C4     *pz        0.2033    0.3466   -0.4070
       11 C4     *101      -0.0102   -0.0227    0.0325
       12 C4     *011       0.0149   -0.0010    0.0320
--


++    Molecular charges:
      ------------------

      Mulliken charges per centre and basis function type
      ---------------------------------------------------

                C1      C2      H3      C4      H5    
      1s       1.9968  1.9970  0.5119  1.9968  0.5180
      2s       0.6937  0.6993  0.0000  0.6889  0.0000
      2px      0.5778  0.5834  0.0000  0.6693  0.0000
      2pz      0.5565  0.5204  0.0000  0.5329  0.0000
      2py      0.7912  0.7857  0.0000  0.7618  0.0000
      *s       0.5282  0.4269  0.2325  0.5128  0.2413
      *px      0.2860  0.4383  0.0000  0.2481  0.0000
      *110     0.0119  0.0155  0.0000  0.0153  0.0000
      *020     0.0443  0.0308  0.0000  0.0348  0.0000
      *002    -0.0190 -0.0156  0.0000 -0.0191  0.0000
      *200     0.0097 -0.0106  0.0000  0.0165  0.0000
      *pz      0.4950  0.3824  0.0000  0.4792  0.0000
      *py      0.3035  0.0858  0.0000  0.3105  0.0000
      *101     0.0039  0.0044  0.0000  0.0061  0.0000
      *011     0.0056  0.0097  0.0000  0.0041  0.0000
      Total    6.2850  5.9534  0.7444  6.2579  0.7593

      N-E     -0.2850  0.0466  0.2556 -0.2579  0.2407

      Total electronic charge=   40.000000

      Total            charge=   -0.000000
--


++    Molecular properties:
      ---------------------

      Charge (e):
                      =   -0.0000
      Dipole Moment (Debye):
      Origin of the operator (Ang)=    0.0000    0.0000    0.0000
                   X=  0.0000E+00               Y=  1.2605E-01               Z=  0.0000E+00           Total=  1.2605E-01
      Quadrupole Moment (Debye*Ang):
      Origin of the operator (Ang)=    0.0000    0.0000    0.0000
                  XX= -3.8119E+01              XY=  0.0000E+00              XZ=  0.0000E+00              YY= -2.4501E+01
                  YZ=  0.0000E+00              ZZ= -3.8170E+01
      In traceless form (Debye*Ang)
                  XX= -6.7833E+00              XY=  0.0000E+00              XZ=  0.0000E+00              YY=  1.3644E+01
                  YZ=  0.0000E+00              ZZ= -6.8603E+00
--


      Input file to MOLDEN was generated!

 ###############################################################################
 ###############################################################################
 ###                                                                         ###
 ###                                                                         ###
 ###    WARNING: RunFile label nBas                                          ###
 ###    was used       59 times                                              ###
 ###                                                                         ###
 ###                                                                         ###
 ###############################################################################
 ###############################################################################
--- Stop Module: scf at Sun Jul  7 16:08:33 2024 /rc=_RC_ALL_IS_WELL_ ---
*** files: ts.scf.molden ts.ScfOrb xmldump
    saved to directory /home/kenya/molcas_test/exercise_1
--- Module scf spent 1 second ---

--- Start Module: mckinley at Sun Jul  7 16:08:33 2024 ---

()()()()()()()()()()()()()()()()()()()()()()()()()()()()()()()()()()()()()()()()()()()()()()()()()()

                                             &MCKINLEY

                                   only a single process is used
                       available to each process: 2.0 GB of memory, 1 thread
                                            pid: 425249
()()()()()()()()()()()()()()()()()()()()()()()()()()()()()()()()()()()()()()()()()()()()()()()()()()


                     Threshold for contributions to the gradient or Hessian: 1.000E-07

 **************************************************************************************************************************
 *                                                                                                                        *
 *                 All data is written to disk, and could be accessed through the MCLR or RASSI program.                  *
 *                                                                                                                        *
 **************************************************************************************************************************
--- Stop Module: mckinley at Sun Jul  7 16:08:49 2024 /rc=_RC_INVOKED_OTHER_MODULE_ ---
*** files: xmldump
    saved to directory /home/kenya/molcas_test/exercise_1
--- Module mckinley spent 16 seconds ---

--- Start Module: mclr at Sun Jul  7 16:08:49 2024 ---

()()()()()()()()()()()()()()()()()()()()()()()()()()()()()()()()()()()()()()()()()()()()()()()()()()

                                               &MCLR

                                   only a single process is used
                       available to each process: 2.0 GB of memory, 1 thread
                                            pid: 425436
()()()()()()()()()()()()()()()()()()()()()()()()()()()()()()()()()()()()()()()()()()()()()()()()()()

 Ordinary integral handling
 OrdInt status: non-squared

++   Wave function specifications:
     -----------------------------
     Wavefunction type:                          SCF
     Number of irreducible symmetry groups       4
     Number of basis functions                  37    37    12    12
     Number of occupied orbitals                 9     8     1     2
     SCF energy =                  -229.2706329881
--

     Convergence threshold=               1.0000E-04
     Max number of iterations in PCG:            200

++   Perturbation specifications:
     ----------------------------

     Number of perturbations in each symmetry     11  11   5   6
     Type of perturbation:                         Hessian         
--

++   Perturbations:
     --------------

     -------------------------------------
      No.    Symmetry    Center Direction 
     -------------------------------------
       1       a1           C1         x
       2       a1           C1         y
       3       a1           C2         x
       4       a1           C2         y
       5       a1           H3         x
       6       a1           H3         y
       7       a1           C4         x
       8       a1           C4         y
       9       a1           H5         x
      10       a1           H5         y
      11       a1           MLTPL  1 Y
      12       b1           C1         x
      13       b1           C1         y
      14       b1           C2         x
      15       b1           C2         y
      16       b1           H3         x
      17       b1           H3         y
      18       b1           C4         x
      19       b1           C4         y
      20       b1           H5         x
      21       b1           H5         y
      22       b1           MLTPL  1 X
      23       a2           C1         z
      24       a2           C2         z
      25       a2           H3         z
      26       a2           C4         z
      27       a2           H5         z
      28       b2           C1         z
      29       b2           C2         z
      30       b2           H3         z
      31       b2           C4         z
      32       b2           H5         z
      33       b2           MLTPL  1 Z
     -------------------------------------
--


     Linear response function is computed for Restricted Hartree-Fock wavefunction

 Process perturbation number                     1
      Perturbation no:    1 converged in    9 steps.

 Process perturbation number                     2
      Perturbation no:    2 converged in    8 steps.

 Process perturbation number                     3
      Perturbation no:    3 converged in    8 steps.

 Process perturbation number                     4
      Perturbation no:    4 converged in    8 steps.

 Process perturbation number                     5
      Perturbation no:    5 converged in    7 steps.

 Process perturbation number                     6
      Perturbation no:    6 converged in    7 steps.

 Process perturbation number                     7
      Perturbation no:    7 converged in    9 steps.

 Process perturbation number                     8
      Perturbation no:    8 converged in    8 steps.

 Process perturbation number                     9
      Perturbation no:    9 converged in    7 steps.

 Process perturbation number                    10
      Perturbation no:   10 converged in    7 steps.

 Process perturbation number                    11
      Perturbation no:   11 converged in    9 steps.

 Process perturbation number                    12
      Perturbation no:   12 converged in   10 steps.

 Process perturbation number                    13
      Perturbation no:   13 converged in   10 steps.

 Process perturbation number                    14
      Perturbation no:   14 converged in   10 steps.

 Process perturbation number                    15
      Perturbation no:   15 converged in    9 steps.

 Process perturbation number                    16
      Perturbation no:   16 converged in    9 steps.

 Process perturbation number                    17
      Perturbation no:   17 converged in    9 steps.

 Process perturbation number                    18
      Perturbation no:   18 converged in   10 steps.

 Process perturbation number                    19
      Perturbation no:   19 converged in   10 steps.

 Process perturbation number                    20
      Perturbation no:   20 converged in    9 steps.

 Process perturbation number                    21
      Perturbation no:   21 converged in   10 steps.

 Process perturbation number                    22
      Perturbation no:   22 converged in   11 steps.

 Process perturbation number                    23
      Perturbation no:   23 converged in    6 steps.

 Process perturbation number                    24
      Perturbation no:   24 converged in    6 steps.

 Process perturbation number                    25
      Perturbation no:   25 converged in    6 steps.

 Process perturbation number                    26
      Perturbation no:   26 converged in    6 steps.

 Process perturbation number                    27
      Perturbation no:   27 converged in    6 steps.

 Process perturbation number                    28
      Perturbation no:   28 converged in    6 steps.

 Process perturbation number                    29
      Perturbation no:   29 converged in    6 steps.

 Process perturbation number                    30
      Perturbation no:   30 converged in    6 steps.

 Process perturbation number                    31
      Perturbation no:   31 converged in    6 steps.

 Process perturbation number                    32
      Perturbation no:   32 converged in    6 steps.

 Process perturbation number                    33
      Perturbation no:   33 converged in    7 steps.


      ************************************
      *                                  *
      * Harmonic frequencies in cm-1     *
      * Intensities in km/mole           *
      *                                  *
      * No correction due to curvilinear *
      * representations has been done    *
      *                                  *
      ************************************


    Symmetry a1 
   ==============

                        1         2         3         4         5         6

     Frequency:      i379.26     i0.07    764.59   1061.87   1117.71   1269.08                                          

     Intensity:    9.097E+00 1.960E-10 9.100E-01 5.027E+00 1.440E+01 7.522E+00
     Red. mass:     10.57052   7.60313   7.99561   3.01683   1.28330   1.44988

     C1         x   -0.60996  -0.00000  -0.03673  -0.06977   0.01642  -0.02738
     C1         y   -0.00118   0.31623   0.19949  -0.11479  -0.00449   0.08407
     C2         x   -0.02168   0.00000  -0.47622  -0.10900  -0.03088   0.05082
     C2         y   -0.08407   0.31623   0.01874   0.01916  -0.04783   0.02785
     H3         x   -0.08063  -0.00000  -0.26349   0.57673  -0.57416   0.12023
     H3         y   -0.22965   0.31623   0.08943   0.05458  -0.20551   0.13029
     C4         x    0.20970   0.00000  -0.02665  -0.23254  -0.05971  -0.01978
     C4         y    0.10682   0.31623  -0.22104   0.08377   0.07371  -0.09242
     H5         x   -0.07101  -0.00000   0.31872  -0.25594  -0.33639  -0.56316
     H5         y   -0.02721   0.31623  -0.05603   0.08668  -0.04915  -0.36237


                        7         8         9        10

     Frequency:      1356.75   1638.23   3420.84   3465.24                                                              

     Intensity:    7.023E-01 8.757E+00 6.234E-03 1.157E+01
     Red. mass:      3.23318   5.37859   1.09457   1.10072

     C1         x    0.10866  -0.00639   0.00045  -0.01818
     C1         y   -0.02686   0.23829  -0.00127  -0.06204
     C2         x   -0.13588   0.07593  -0.00197  -0.00323
     C2         y   -0.10408  -0.34380  -0.00270   0.00565
     H3         x    0.39769   0.20904  -0.00209  -0.24076
     H3         y    0.14561   0.38160   0.00672   0.66163
     C4         x    0.20478  -0.12326  -0.02664   0.00160
     C4         y    0.13216   0.05321   0.05677   0.00026
     H5         x   -0.44019   0.23169   0.30390  -0.00369
     H5         y   -0.16013   0.24123  -0.63533   0.00667



    Symmetry b1 
   ==============

                        1         2         3         4         5         6

     Frequency:      i500.34     i0.10      1.79    599.52   1157.64   1316.36                                          

     Intensity:    3.298E+03 8.646E-06 4.317E-03 4.644E+01 5.973E+01 3.204E+00
     Red. mass:      6.84794   7.59254   4.54084   7.16631   1.52193   1.25774

     C1         x    0.20598   0.32620  -0.18708  -0.22296   0.02408  -0.05862
     C1         y    0.19054  -0.00704   0.13264  -0.23187   0.08850   0.05650
     C2         x   -0.39050   0.31583   0.00838  -0.05940   0.04386   0.02952
     C2         y    0.02936  -0.01188   0.22385  -0.14368   0.01560   0.05782
     H3         x    0.38083   0.33504  -0.35364  -0.07846  -0.45283   0.52367
     H3         y   -0.09469   0.01041  -0.19614   0.28711  -0.27344   0.15389
     C4         x    0.12885   0.30518   0.20911   0.27614  -0.00122   0.01724
     C4         y   -0.13023  -0.00632   0.11919  -0.27610  -0.11315  -0.01505
     H5         x    0.28209   0.29667   0.36954   0.15253  -0.34147  -0.38250
     H5         y   -0.02796  -0.01051   0.19800  -0.32865  -0.28318  -0.21074


                        7         8         9        10

     Frequency:      1506.10   1906.46   3399.92   3445.13                                                              

     Intensity:    8.156E+00 3.699E+01 1.842E+01 4.366E+00
     Red. mass:      2.27296   9.40745   1.08605   1.09616

     C1         x    0.05576   0.13954  -0.00006  -0.01692
     C1         y   -0.09622  -0.30468  -0.00319  -0.06056
     C2         x   -0.09128  -0.03146  -0.00337  -0.00402
     C2         y   -0.00964   0.48220  -0.00125   0.00571
     H3         x   -0.22489  -0.13447   0.01450   0.24469
     H3         y    0.00935   0.29276  -0.03654  -0.65925
     C4         x    0.10509  -0.10179  -0.02344   0.00175
     C4         y    0.16035  -0.16094   0.05464  -0.00352
     H5         x   -0.60342   0.05964   0.30532  -0.01612
     H5         y   -0.16635  -0.10285  -0.63378   0.03522



    Symmetry a2 
   ==============

                        1         2         3         4         5

     Frequency:         2.72    110.09    489.61    898.11   1029.72                                                    

     C1         z    0.23478   0.15634  -0.21214  -0.13733   0.01729
     C2         z    0.39648  -0.20139  -0.04938   0.05188   0.00683
     H3         z   -0.34694  -0.59521   0.27393  -0.68264   0.15933
     C4         z    0.21098   0.08444   0.29122  -0.05267  -0.10503
     H5         z    0.35043   0.27127   0.54103   0.09838   0.68061



    Symmetry b2 
   ==============

                        1         2         3         4         5

     Frequency:      i804.09     i0.53      1.28    513.82    812.03                                                    

     Intensity:    8.759E+00 1.103E-03 6.622E-03 3.585E+01 9.753E+01
     Red. mass:      1.26720   6.55095   3.83265   2.66967   1.52165

     C1         z   -0.08394  -0.14893  -0.31495   0.08116  -0.08156
     C2         z    0.01321  -0.27072  -0.08680  -0.24721   0.09136
     H3         z    0.51210  -0.04512  -0.50934   0.49151   0.44592
     C4         z    0.06765  -0.39582   0.14753   0.08885  -0.09151
     H5         z   -0.47535  -0.49581   0.33479   0.42758   0.52705



++ Thermochemistry

 *********************
 *                   *
 *  THERMOCHEMISTRY  *
 *                   *
 *********************

 Mass-centered Coordinates (Angstrom):
 ********************************************************
 Label        X           Y           Z          Mass  
 --------------------------------------------------------
 C1         0.000000    0.796204    1.183017     12.00000
 C2         0.000000    1.343624    0.009896     12.00000
 H3         0.000000   -1.177316    2.182710      1.00783
 C4         0.000000    0.715377   -1.194993     12.00000
 H5         0.000000    1.188463   -2.157937      1.00783
 C1         0.000000   -0.796204    1.183017     12.00000
 C2         0.000000   -1.343624    0.009896     12.00000
 H3         0.000000    1.177316    2.182710      1.00783
 C4         0.000000   -0.715377   -1.194993     12.00000
 H5         0.000000   -1.188463   -2.157937      1.00783
 --------------------------------------------------------
 Molecular mass:   76.031300
 Rotational Constants (cm-1):    0.1032    0.1941    0.2205
 Rotational Constants (GHz) :    3.0944    5.8188    6.6092
 Rotational temperatures (K):    0.1485    0.2793    0.3172
 Rotational Symmetry factor:  1
  *** Warning:                     3  vibrational contributions removed.
 Vibrational temperature (K): 
   1100.08  1527.80  1608.13  1825.93  1952.06
   2357.05  4921.82  4985.71   862.58  1665.59
   1893.95  2166.94  2742.97  4891.72  4956.77
    158.39   704.44  1292.18  1481.54   739.27
   1168.33
 Number of trans. and rot. degrees of freedom:  6
 ZPVE                44.715 kcal/mol      0.071258 au.
 ZPVE corrected energy                 -229.199375 au.

 *****************************************************
 Temperature =     0.00 Kelvin, Pressure =   1.00 atm
 -----------------------------------------------------
 Molecular Partition Function and Molar Entropy:
                        q/V (M**-3)    S(kcal/mol*K)
 Electronic            1.000000E+00        0.000
 Translational         1.000000E+00        0.000
 Rotational            1.000000E+00        2.981
 Vibrational           1.000000E+00        0.000
 TOTAL                 1.000000E+00        2.981

 Thermal contributions to INTERNAL ENERGY:
 Electronic           0.000 kcal/mol      0.000000 au.
 Translational        0.000 kcal/mol      0.000000 au.
 Rotational           0.000 kcal/mol      0.000000 au.
 Vibrational         44.715 kcal/mol      0.071258 au.
 TOTAL               44.715 kcal/mol      0.071258 au.

 Thermal contributions to
 ENTHALPY            44.715 kcal/mol      0.071258 au.
 GIBBS FREE ENERGY   44.715 kcal/mol      0.071258 au.

 Sum of energy and thermal contributions
 INTERNAL ENERGY                       -229.199375 au.
 ENTHALPY                              -229.199375 au.
 GIBBS FREE ENERGY                     -229.199375 au.
 -----------------------------------------------------

 *****************************************************
 Temperature =   100.00 Kelvin, Pressure =   1.00 atm
 -----------------------------------------------------
 Molecular Partition Function and Molar Entropy:
                        q/V (M**-3)    S(kcal/mol*K)
 Electronic            1.000000E+00        0.000
 Translational         3.939934E+27       33.474
 Rotational            1.545366E+04       22.149
 Vibrational           2.383120E-98        1.297
 TOTAL                 1.450996E-66       56.920

 Thermal contributions to INTERNAL ENERGY:
 Electronic           0.000 kcal/mol      0.000000 au.
 Translational        0.298 kcal/mol      0.000475 au.
 Rotational           0.298 kcal/mol      0.000475 au.
 Vibrational         44.799 kcal/mol      0.071392 au.
 TOTAL               45.395 kcal/mol      0.072342 au.

 Thermal contributions to
 ENTHALPY            45.594 kcal/mol      0.072659 au.
 GIBBS FREE ENERGY   39.902 kcal/mol      0.063588 au.

 Sum of energy and thermal contributions
 INTERNAL ENERGY                       -229.198291 au.
 ENTHALPY                              -229.197974 au.
 GIBBS FREE ENERGY                     -229.207045 au.
 -----------------------------------------------------

 *****************************************************
 Temperature =   273.15 Kelvin, Pressure =   1.00 atm
 -----------------------------------------------------
 Molecular Partition Function and Molar Entropy:
                        q/V (M**-3)    S(kcal/mol*K)
 Electronic            1.000000E+00        0.000
 Translational         1.778651E+28       38.466
 Rotational            6.976428E+04       25.144
 Vibrational           4.878030E-36        5.225
 TOTAL                 6.052967E-03       68.835

 Thermal contributions to INTERNAL ENERGY:
 Electronic           0.000 kcal/mol      0.000000 au.
 Translational        0.814 kcal/mol      0.001298 au.
 Rotational           0.814 kcal/mol      0.001298 au.
 Vibrational         45.562 kcal/mol      0.072607 au.
 TOTAL               47.190 kcal/mol      0.075202 au.

 Thermal contributions to
 ENTHALPY            47.733 kcal/mol      0.076067 au.
 GIBBS FREE ENERGY   28.931 kcal/mol      0.046104 au.

 Sum of energy and thermal contributions
 INTERNAL ENERGY                       -229.195431 au.
 ENTHALPY                              -229.194566 au.
 GIBBS FREE ENERGY                     -229.224529 au.
 -----------------------------------------------------

 *****************************************************
 Temperature =   298.15 Kelvin, Pressure =   1.00 atm
 -----------------------------------------------------
 Molecular Partition Function and Molar Entropy:
                        q/V (M**-3)    S(kcal/mol*K)
 Electronic            1.000000E+00        0.000
 Translational         2.028342E+28       38.901
 Rotational            7.955794E+04       25.405
 Vibrational           5.644445E-33        5.965
 TOTAL                 9.108480E+00       70.271

 Thermal contributions to INTERNAL ENERGY:
 Electronic           0.000 kcal/mol      0.000000 au.
 Translational        0.889 kcal/mol      0.001416 au.
 Rotational           0.889 kcal/mol      0.001416 au.
 Vibrational         45.773 kcal/mol      0.072944 au.
 TOTAL               47.551 kcal/mol      0.075777 au.

 Thermal contributions to
 ENTHALPY            48.143 kcal/mol      0.076721 au.
 GIBBS FREE ENERGY   27.192 kcal/mol      0.043333 au.

 Sum of energy and thermal contributions
 INTERNAL ENERGY                       -229.194856 au.
 ENTHALPY                              -229.193912 au.
 GIBBS FREE ENERGY                     -229.227300 au.
 -----------------------------------------------------

 *****************************************************
 Temperature =   323.15 Kelvin, Pressure =   1.00 atm
 -----------------------------------------------------
 Molecular Partition Function and Molar Entropy:
                        q/V (M**-3)    S(kcal/mol*K)
 Electronic            1.000000E+00        0.000
 Translational         2.288733E+28       39.301
 Rotational            8.977131E+04       25.645
 Vibrational           2.258449E-30        6.738
 TOTAL                 4.640266E+03       71.684

 Thermal contributions to INTERNAL ENERGY:
 Electronic           0.000 kcal/mol      0.000000 au.
 Translational        0.963 kcal/mol      0.001535 au.
 Rotational           0.963 kcal/mol      0.001535 au.
 Vibrational         46.014 kcal/mol      0.073327 au.
 TOTAL               47.940 kcal/mol      0.076397 au.

 Thermal contributions to
 ENTHALPY            48.582 kcal/mol      0.077421 au.
 GIBBS FREE ENERGY   25.417 kcal/mol      0.040505 au.

 Sum of energy and thermal contributions
 INTERNAL ENERGY                       -229.194236 au.
 ENTHALPY                              -229.193212 au.
 GIBBS FREE ENERGY                     -229.230128 au.
 -----------------------------------------------------

 *****************************************************
 Temperature =   373.15 Kelvin, Pressure =   1.00 atm
 -----------------------------------------------------
 Molecular Partition Function and Molar Entropy:
                        q/V (M**-3)    S(kcal/mol*K)
 Electronic            1.000000E+00        0.000
 Translational         2.839972E+28       40.016
 Rotational            1.113926E+05       26.074
 Vibrational           3.525170E-26        8.368
 TOTAL                 1.115194E+08       74.457

 Thermal contributions to INTERNAL ENERGY:
 Electronic           0.000 kcal/mol      0.000000 au.
 Translational        1.112 kcal/mol      0.001773 au.
 Rotational           1.112 kcal/mol      0.001773 au.
 Vibrational         46.581 kcal/mol      0.074232 au.
 TOTAL               48.806 kcal/mol      0.077777 au.

 Thermal contributions to
 ENTHALPY            49.547 kcal/mol      0.078959 au.
 GIBBS FREE ENERGY   21.764 kcal/mol      0.034682 au.

 Sum of energy and thermal contributions
 INTERNAL ENERGY                       -229.192856 au.
 ENTHALPY                              -229.191674 au.
 GIBBS FREE ENERGY                     -229.235951 au.
 -----------------------------------------------------

 *****************************************************
 Temperature =   473.15 Kelvin, Pressure =   1.00 atm
 -----------------------------------------------------
 Molecular Partition Function and Molar Entropy:
                        q/V (M**-3)    S(kcal/mol*K)
 Electronic            1.000000E+00        0.000
 Translational         4.054966E+28       41.195
 Rotational            1.590485E+05       26.781
 Vibrational           2.467033E-20       11.819
 TOTAL                 1.591079E+14       79.796

 Thermal contributions to INTERNAL ENERGY:
 Electronic           0.000 kcal/mol      0.000000 au.
 Translational        1.410 kcal/mol      0.002248 au.
 Rotational           1.410 kcal/mol      0.002248 au.
 Vibrational         48.043 kcal/mol      0.076561 au.
 TOTAL               50.864 kcal/mol      0.081056 au.

 Thermal contributions to
 ENTHALPY            51.804 kcal/mol      0.082555 au.
 GIBBS FREE ENERGY   14.049 kcal/mol      0.022388 au.

 Sum of energy and thermal contributions
 INTERNAL ENERGY                       -229.189577 au.
 ENTHALPY                              -229.188078 au.
 GIBBS FREE ENERGY                     -229.248245 au.
 -----------------------------------------------------
--


 ************************************
 *                                  *
 *       Polarizabilities           *
 *                                  *
 ************************************



      129.4958528031894218
       -0.0000000000000000     70.2432350589286898
       -0.0000000000000000     -0.0000000000000000     21.0414826299103268

++    Isotopic shifts:
      ----------------



 ****************************************
 *                                      *
 * Isotope shifted frequencies in cm-1  *
 *                                      *
 ****************************************


  Single substitutions:
  -----------------------

 Masses:
 =======
  13  12  12  12   1   1  12  12   1   1


 Frequencies:
 ============
                         1         2         3         4         5         6

            Freq.    i801.99   i497.65   i372.84     i0.52     i0.10     i0.07                                               


                         7         8         9        10        11        12

            Freq.       1.26      1.78      2.71    109.59    486.86    513.28                                               


                        13        14        15        16        17        18

            Freq.     595.32    762.66    810.29    893.12   1029.61   1058.74                                               


                        19        20        21        22        23        24

            Freq.    1117.58   1154.57   1265.57   1313.02   1354.43   1502.14                                               


                        25        26        27        28        29        30

            Freq.    1630.21   1896.30   3399.90   3420.84   3437.80   3460.81                                               


 Masses:
 =======
  14  12  12  12   1   1  12  12   1   1


 Frequencies:
 ============
                         1         2         3         4         5         6

            Freq.    i800.15   i495.32   i366.96     i0.52     i0.09     i0.07                                               


                         7         8         9        10        11        12

            Freq.       1.25      1.77      2.70    109.13    484.30    512.87                                               


                        13        14        15        16        17        18

            Freq.     591.40    760.80    808.63    889.03   1029.53   1055.74                                               


                        19        20        21        22        23        24

            Freq.    1117.47   1151.74   1261.93   1310.03   1352.63   1498.49                                               


                        25        26        27        28        29        30

            Freq.    1623.43   1888.22   3399.87   3420.83   3429.78   3458.92                                               


 Masses:
 =======
  12  12  13  12   1   1  12  12   1   1


 Frequencies:
 ============
                         1         2         3         4         5         6

            Freq.    i804.04   i494.94   i379.13     i0.52     i0.10     i0.07                                               


                         7         8         9        10        11        12

            Freq.       1.28      1.78      2.69    109.26    489.42    508.33                                               


                        13        14        15        16        17        18

            Freq.     598.52    754.12    809.98    897.41   1029.70   1059.85                                               


                        19        20        21        22        23        24

            Freq.    1116.27   1156.87   1267.58   1313.95   1351.27   1503.62                                               


                        25        26        27        28        29        30

            Freq.    1619.31   1885.88   3399.90   3420.82   3445.06   3465.18                                               


 Masses:
 =======
  12  12  14  12   1   1  12  12   1   1


 Frequencies:
 ============
                         1         2         3         4         5         6

            Freq.    i803.99   i489.96   i379.00     i0.52     i0.09     i0.07                                               


                         7         8         9        10        11        12

            Freq.       1.27      1.77      2.66    108.51    489.14    503.62                                               


                        13        14        15        16        17        18

            Freq.     597.55    744.47    808.24    896.84   1029.69   1058.07                                               


                        19        20        21        22        23        24

            Freq.    1114.81   1156.21   1266.03   1311.21   1347.03   1501.66                                               


                        25        26        27        28        29        30

            Freq.    1600.90   1870.48   3399.88   3420.81   3445.00   3465.13                                               


 Masses:
 =======
  12  12  12  12   2   1  12  12   1   1


 Frequencies:
 ============
                         1         2         3         4         5         6

            Freq.    i753.19   i495.42   i378.27     i0.53     i0.10     i0.07                                               


                         7         8         9        10        11        12

            Freq.       1.24      1.76      2.70    103.68    479.83    499.46                                               


                        13        14        15        16        17        18

            Freq.     595.74    752.02    757.60    853.67    860.66   1026.42                                               


                        19        20        21        22        23        24

            Freq.    1070.42   1140.11   1258.09   1276.43   1351.74   1499.50                                               


                        25        26        27        28        29        30

            Freq.    1617.60   1892.60   2567.92   3400.00   3420.84   3455.27                                               


 Masses:
 =======
  12  12  12  12   3   1  12  12   1   1


 Frequencies:
 ============
                         1         2         3         4         5         6

            Freq.    i730.43   i491.60   i377.41     i0.53     i0.09     i0.07                                               


                         7         8         9        10        11        12

            Freq.       1.20      1.73      2.68     98.99    465.81    496.43                                               


                        13        14        15        16        17        18

            Freq.     591.85    709.43    719.36    777.07    848.55   1025.81                                               


                        19        20        21        22        23        24

            Freq.    1063.24   1135.83   1254.63   1269.67   1351.39   1494.53                                               


                        25        26        27        28        29        30

            Freq.    1595.20   1869.08   2231.00   3400.00   3420.84   3455.24                                               


 Masses:
 =======
  12  12  12  12   1   1  13  12   1   1


 Frequencies:
 ============
                         1         2         3         4         5         6

            Freq.    i802.72   i499.15   i378.29     i0.52     i0.10     i0.07                                               


                         7         8         9        10        11        12

            Freq.       1.27      1.78      2.71    109.94    484.43    513.22                                               


                        13        14        15        16        17        18

            Freq.     593.23    762.27    809.92    897.36   1025.61   1051.16                                               


                        19        20        21        22        23        24

            Freq.    1114.18   1153.01   1265.15   1316.11   1344.83   1495.60                                               


                        25        26        27        28        29        30

            Freq.    1635.77   1903.20   3393.48   3416.50   3445.11   3465.24                                               


 Masses:
 =======
  12  12  12  12   1   1  14  12   1   1


 Frequencies:
 ============
                         1         2         3         4         5         6

            Freq.    i801.52   i498.04   i377.39     i0.51     i0.09     i0.07                                               


                         7         8         9        10        11        12

            Freq.       1.27      1.77      2.70    109.80    479.59    512.84                                               


                        13        14        15        16        17        18

            Freq.     587.16    760.05    808.05    896.72   1022.22   1040.91                                               


                        19        20        21        22        23        24

            Freq.    1111.19   1148.77   1261.12   1315.89   1334.40   1487.86                                               


                        25        26        27        28        29        30

            Freq.    1633.77   1900.64   3386.38   3414.48   3445.10   3465.24                                               


 Masses:
 =======
  12  12  12  12   1   1  12  12   2   1


 Frequencies:
 ============
                         1         2         3         4         5         6

            Freq.    i758.01   i497.76   i379.17     i0.52     i0.10     i0.07                                               


                         7         8         9        10        11        12

            Freq.       1.26      1.76      2.70    108.65    464.20    505.71                                               


                        13        14        15        16        17        18

            Freq.     593.88    748.15    756.91    895.93    922.45    951.17                                               


                        19        20        21        22        23        24

            Freq.    1058.42   1121.34   1196.23   1301.51   1348.57   1469.68                                               


                        25        26        27        28        29        30

            Freq.    1631.73   1904.42   2518.85   3410.49   3445.08   3465.24                                               


 Masses:
 =======
  12  12  12  12   1   1  12  12   3   1


 Frequencies:
 ============
                         1         2         3         4         5         6

            Freq.    i735.80   i495.74   i379.09     i0.51     i0.09     i0.07                                               


                         7         8         9        10        11        12

            Freq.       1.24      1.73      2.68    107.45    439.32    504.06                                               


                        13        14        15        16        17        18

            Freq.     588.05    714.01    730.69    807.57    894.70    935.34                                               


                        19        20        21        22        23        24

            Freq.    1047.12   1112.42   1191.59   1300.06   1346.26   1459.89                                               


                        25        26        27        28        29        30

            Freq.    1627.37   1899.62   2158.99   3410.46   3445.08   3465.24                                               



  Full substitutions:
  -----------------------

 Masses:
 =======
  12  12  12  12   2   2  12  12   2   2


 Frequencies:
 ============
                         1         2         3         4         5         6

            Freq.    i628.82   i485.73   i377.09     i0.51     i0.09     i0.07                                               


                         7         8         9        10        11        12

            Freq.       1.17      1.67      2.63     96.03    434.66    441.42                                               


                        13        14        15        16        17        18

            Freq.     581.37    695.64    733.26    744.83    805.42    818.53                                               


                        19        20        21        22        23        24

            Freq.     890.20    902.37   1008.80   1076.92   1327.00   1390.09                                               


                        25        26        27        28        29        30

            Freq.    1579.07   1872.68   2506.21   2531.23   2560.81   2575.79                                               


 Masses:
 =======
  12  12  12  12   3   3  12  12   3   3


 Frequencies:
 ============
                         1         2         3         4         5         6

            Freq.    i558.27   i474.79   i375.23     i0.49     i0.09     i0.07                                               


                         7         8         9        10        11        12

            Freq.       1.09      1.57      2.54     87.18    378.98    397.21                                               


                        13        14        15        16        17        18

            Freq.     564.08    646.39    667.59    686.47    687.85    748.84                                               


                        19        20        21        22        23        24

            Freq.     755.74    807.95    876.09   1031.75   1320.93   1339.00                                               


                        25        26        27        28        29        30

            Freq.    1524.58   1808.97   2143.50   2170.01   2227.58   2235.83                                               


 Masses:
 =======
  13  13  13  13   1   1  13  13   1   1


 Frequencies:
 ============
                         1         2         3         4         5         6

            Freq.    i797.12   i481.94   i364.51     i0.51     i0.09     i0.07                                               


                         7         8         9        10        11        12

            Freq.       1.24      1.73      2.62    107.14    473.75    499.64                                               


                        13        14        15        16        17        18

            Freq.     577.31    735.76    800.73    884.88   1021.23   1029.06                                               


                        19        20        21        22        23        24

            Freq.    1108.22   1139.28   1248.28   1304.97   1321.89   1471.83                                               


                        25        26        27        28        29        30

            Freq.    1581.31   1833.17   3389.65   3409.48   3433.54   3453.02                                               


 Masses:
 =======
  14  14  14  14   1   1  14  14   1   1


 Frequencies:
 ============
                         1         2         3         4         5         6

            Freq.    i791.12   i465.52   i351.40     i0.49     i0.09     i0.07                                               


                         7         8         9        10        11        12

            Freq.       1.20      1.68      2.53    104.44    459.29    486.33                                               


                        13        14        15        16        17        18

            Freq.     557.45    709.98    791.47    873.39    997.26   1014.18                                               


                        19        20        21        22        23        24

            Freq.    1099.45   1120.01   1220.96   1294.67   1301.71   1444.64                                               


                        25        26        27        28        29        30

            Freq.    1531.48   1767.89   3380.97   3399.87   3423.81   3442.72                                               


--


      The response parameters are written to the file RESP.
--- Stop Module: mclr at Sun Jul  7 16:08:52 2024 /rc=_RC_ALL_IS_WELL_ ---
*** files: ts.freq.molden ts.UnSym xmldump
    saved to directory /home/kenya/molcas_test/exercise_1
--- Module mclr spent 2 seconds ---

.##################.
.# Happy landing! #.
.##################.

    Timing: Wall=22.51 User=20.98 System=1.49
