   This run of MOLCAS is using the pymolcas driver

                             OPE
                             OPE          NMOL  CASOP  ENMOLC A   SO
                 OPE        NMOLC        AS  OP EN  MO LC     AS  OP
                OPENM       OL CA        SO  PE NM  OL CA     SOP EN
                OP EN      MO   LC       AS  OP ENMOL  CASO   PENMOL
                OP  EN     MO   LC       AS  OP EN     MO     LC ASO
               OP   E  NMOL  C  AS       OP  EN MO     LC     AS  OP
               OP  E   NMO   LC AS        OPEN  MO     LCASOP EN   M
               O  PEN   MO  LCA  SO
            OPE   NMO   L   CAS    OP
        OPENMOL  CASOP     ENMOL   CASOPE
     OPENMOLCA   SOPENMOLCASOPEN   MOLCASOPE
    OPENMOLCAS   OP           EN   MOL    CAS
    OPENMOLCAS       OP  ENM        O     LCA
    OPENMOLCAS    OPEN  MOLCASO     P  E  NMO
    OPENMOLCAS     OP               E  N  MOL
    OPENMOLCA   SO           PENM   O  L  CAS    OPEN    MO    LCAS
    OPENMOLCA   SOP           ENM   O  L  CAS   OP  EN  MOLC  AS   O
    OPENMOLCA   SOPE           NM      O  LCA   S      OP  EN MO
    OPENMOLC                AS         O  PEN   M      OL  CA  SOPE
    OPENMO        LCASOPE  NMOL        C  ASO   P      ENMOLC     AS
    OPE     NMO      LCA  SO     P     E   NM   OL  CA SO  PE N   MO
          OPENMOLCA            SOPE   NMO        LCAS  O    P  ENMO
     OPENMOLCASOPENMOLCASOPENMOLCASOPENMOLCA
        OPENMOLCASOPENMOLCASOPENMOLCASOPE
            OPENMOLCASOPENMOLCASOPENM
               OPENMOLCASOPENMOLCA        version: 24.02
                   OPENMOLCASO
                       OPE                tag: 428-g03afa2e9a

 OpenMolcas is free software; you can redistribute it and/or modify it
 under the terms of the GNU Lesser General Public License version 2.1.
 OpenMolcas is distributed in the hope that it will be useful, but it
 is provided "as is" and without any express or implied warranties.
 For more details see the full text of the license in the file
 LICENSE or in <http://www.gnu.org/licenses/>.

                 Copyright (C) The OpenMolcas Authors
           For the author list and the recommended citation,
                   consult the file CONTRIBUTORS.md

           *************************************************
           * pymolcas version py2.28                       *
           *   build c4a6d18ded8cb6cad61d2372a9abd97c      *
           *   (after the EMIL interpreter by V. Veryazov) *
           *************************************************

configuration info
------------------
Host name: DESKTOP-ET1S6F4 (Linux)
C Compiler ID: GNU
C flags: -std=gnu99 -fopenmp
Fortran Compiler ID: GNU
Fortran flags: -fno-aggressive-loop-optimizations -cpp -fdefault-integer-8 -fopenmp
Definitions: _WARNING_WORKAROUND_;_MOLCAS_;_I8_;_LINUX_
Parallel: OFF (GA=OFF)


   ----------------------------------------------------------------------
  |
  |           Project: ts
  |    Submitted from: /home/kenya/molcas_test/exercise_1
  |      Scratch area: /tmp/ts
  |   Save outputs to: /home/kenya/molcas_test/exercise_1
  |            Molcas: /home/kenya/OpenMolcas/builds/gnu_dev_omp
  |
  | Scratch area is NOT empty
  |
  |    MOLCAS_DRIVER = /home/kenya/OpenMolcas/builds/gnu_dev_omp/pymolcas
  |    MOLCAS_NPROCS = 1
  |    MOLCAS_SOURCE = /home/kenya/OpenMolcas
  | MOLCAS_STRUCTURE = 0
  |
   ----------------------------------------------------------------------

++ ---------   Input file   ---------

&GATEWAY
Coord = ts.Opt.xyz
  Basis = 6-31G*
  Group = C1
  NoCD

&SEWARD

&SCF

&RASSCF
  Inactive = 14
  RAS2   = 12
  nActEl = 12 0 0
  alter = 4
  1 14 15
  1 24 28
  1 25 29
  1 26 31

-- ----------------------------------

--- Start Module: gateway at Wed Jul 10 21:30:18 2024 ---

()()()()()()()()()()()()()()()()()()()()()()()()()()()()()()()()()()()()()()()()()()()()()()()()()()

                                              &GATEWAY

                                   only a single process is used
                       available to each process: 2.0 GB of memory, 1 thread
                                            pid: 711902
()()()()()()()()()()()()()()()()()()()()()()()()()()()()()()()()()()()()()()()()()()()()()()()()()()


++    Symmetry information:
      ---------------------

                    Character Table for C1 

                             E  
                    a        1  x, y, xy, Rz, z, xz, Ry, yz, Rx, I
--


++    Basis set information:
      ----------------------


      Basis set label: C.6-31G**....

      Electronic valence basis set:
      ------------------
      Associated Effective Charge   6.000000 au
      Associated Actual Charge      6.000000 au
      Nuclear Model: Point charge

      Shell  nPrim  nBasis  Cartesian Spherical Contaminant
         s      10       3        X                  
         p       4       2        X                  
         d       1       1        X                  


      Basis set label: H.6-31G....

      Electronic valence basis set:
      ------------------
      Associated Effective Charge   1.000000 au
      Associated Actual Charge      1.000000 au
      Nuclear Model: Point charge

      Shell  nPrim  nBasis  Cartesian Spherical Contaminant
         s       4       2        X                  


      Basis set label: C.6-31G**....

      Electronic valence basis set:
      ------------------
      Associated Effective Charge   6.000000 au
      Associated Actual Charge      6.000000 au
      Nuclear Model: Point charge

      Shell  nPrim  nBasis  Cartesian Spherical Contaminant
         s      10       3        X                  
         p       4       2        X                  
         d       1       1        X                  


      Basis set label: H.6-31G....

      Electronic valence basis set:
      ------------------
      Associated Effective Charge   1.000000 au
      Associated Actual Charge      1.000000 au
      Nuclear Model: Point charge

      Shell  nPrim  nBasis  Cartesian Spherical Contaminant
         s       4       2        X                  
--


++    Molecular structure info:
      -------------------------

                    ************************************************ 
                    **** Cartesian Coordinates / Bohr, Angstrom **** 
                    ************************************************ 

     Center  Label                x              y              z                     x              y              z
        1      C1               1.504608       2.235589       0.000000              0.796204       1.183023       0.000000
        2      C2              -1.504608       2.235589       0.000000             -0.796204       1.183023       0.000000
        3      C3               2.539082       0.018711       0.000000              1.343624       0.009902       0.000000
        4      C4              -2.539082       0.018711       0.000000             -1.343624       0.009902       0.000000
        5      H5              -2.224805       4.124735       0.000000             -1.177316       2.182716       0.000000
        6      H6               2.224805       4.124735       0.000000              1.177316       2.182716       0.000000
        7      C7               1.351866      -2.258198       0.000000              0.715377      -1.194987       0.000000
        8      C8              -1.351866      -2.258198       0.000000             -0.715377      -1.194987       0.000000
        9      H9               2.245870      -4.077899       0.000000              1.188463      -2.157931       0.000000
       10      H10             -2.245870      -4.077899       0.000000             -1.188463      -2.157931       0.000000

                    *************************************** 
                    *    InterNuclear Distances / Bohr    * 
                    *************************************** 

               1 C1            2 C2            3 C3            4 C4            5 H5            6 H6    
    1 C1       0.000000
    2 C2       3.009216        0.000000
    3 C3       2.446361        4.611505        0.000000
    4 C4       4.611505        2.446361        5.078164        0.000000
    5 H5       4.180597        2.021770        6.289201        4.118033        0.000000
    6 H6       2.021770        4.180597        4.118033        6.289201        4.449610        0.000000
    7 C7       4.496382        5.324807        2.567839        4.508192        7.316721        6.442348
    8 C8       5.324807        4.496382        4.508192        2.567839        6.442348        7.316721
    9 H9       6.356854        7.343446        4.107090        6.299046        9.341848        8.202660
   10 H10      7.343446        6.356854        6.299046        4.107090        8.202660        9.341848

               7 C7            8 C8            9 H9           10 H10   
    7 C7       0.000000
    8 C8       2.703733        0.000000
    9 H9       2.027450        4.031751        0.000000
   10 H10      4.031751        2.027450        4.491739        0.000000

                    ******************************************* 
                    *    InterNuclear Distances / Angstrom    * 
                    ******************************************* 

               1 C1            2 C2            3 C3            4 C4            5 H5            6 H6    
    1 C1       0.000000
    2 C2       1.592409        0.000000
    3 C3       1.294559        2.440303        0.000000
    4 C4       2.440303        1.294559        2.687249        0.000000
    5 H5       2.212277        1.069875        3.328102        2.179169        0.000000
    6 H6       1.069875        2.212277        2.179169        3.328102        2.354632        0.000000
    7 C7       2.379383        2.817766        1.358842        2.385632        3.871842        3.409144
    8 C8       2.817766        2.379383        2.385632        1.358842        3.409144        3.871842
    9 H9       3.363902        3.885985        2.173378        3.333311        4.943493        4.340661
   10 H10      3.885985        3.363902        3.333311        2.173378        4.340661        4.943493

               7 C7            8 C8            9 H9           10 H10   
    7 C7       0.000000
    8 C8       1.430754        0.000000
    9 H9       1.072880        2.133511        0.000000
   10 H10      2.133511        1.072880        2.376926        0.000000

                    ************************************** 
                    *    Valence Bond Angles / Degree    * 
                    ************************************** 
                          Atom centers                 Phi
                      3 C3       1 C1       6 H6       134.12
                      4 C4       2 C2       5 H5       134.12
                      1 C1       3 C3       7 C7       127.45
                      2 C2       4 C4       8 C8       127.45
                      3 C3       7 C7       8 C8       117.54
                      3 C3       7 C7       9 H9       126.30
                      8 C8       7 C7       9 H9       116.16
                      4 C4       8 C8       7 C7       117.54
                      4 C4       8 C8      10 H10      126.30
                      7 C7       8 C8      10 H10      116.16

           ***************************************************************
           *              Valence Dihedral Angles / Degree               *
           ***************************************************************
                    Atom centers                       Phi1     Phi2     Theta 
           6 H6       1 C1       3 C3       7 C7        134.12   127.45  -180.00
           5 H5       2 C2       4 C4       8 C8        134.12   127.45  -180.00
           1 C1       3 C3       7 C7       8 C8        127.45   117.54    -0.00
           1 C1       3 C3       7 C7       9 H9        127.45   126.30  -180.00
           2 C2       4 C4       8 C8       7 C7        127.45   117.54     0.00
           2 C2       4 C4       8 C8      10 H10       127.45   126.30  -180.00
           3 C3       7 C7       8 C8       4 C4        117.54   117.54    -0.00
           3 C3       7 C7       8 C8      10 H10       117.54   116.16  -180.00
           9 H9       7 C7       8 C8      10 H10       116.16   116.16    -0.00
           4 C4       8 C8       7 C7       9 H9        117.54   116.16  -180.00
--


            Nuclear Potential Energy            186.23618787 au

--- Stop Module: gateway at Wed Jul 10 21:30:18 2024 /rc=_RC_ALL_IS_WELL_ ---
*** files: xmldump
    saved to directory /home/kenya/molcas_test/exercise_1

--- Start Module: seward at Wed Jul 10 21:30:18 2024 ---

()()()()()()()()()()()()()()()()()()()()()()()()()()()()()()()()()()()()()()()()()()()()()()()()()()

                                              &SEWARD

                                   only a single process is used
                       available to each process: 2.0 GB of memory, 1 thread
                                            pid: 711905
()()()()()()()()()()()()()()()()()()()()()()()()()()()()()()()()()()()()()()()()()()()()()()()()()()

               SEWARD will generate:
                  Multipole Moment integrals up to order  2
                  Kinetic Energy integrals
                  Nuclear Attraction integrals (point charge)
                  One-Electron Hamiltonian integrals
                  Velocity integrals
                  Orbital angular momentum around ( 0.0000  0.0000  0.0000 )
                  Velocity quadrupole around ( 0.0000  0.0000  0.0000 )
                  Two-Electron Repulsion integrals

                   Integrals are discarded if absolute value <: 1.00E-14
                   Integral cutoff threshold is set to       <: 1.00E-16

            Nuclear Potential Energy            186.23618787 au


      Basis set specifications :
      Symmetry species         a  
      Basis functions           98


      Input file to MOLDEN was generated!

--- Stop Module: seward at Wed Jul 10 21:30:21 2024 /rc=_RC_ALL_IS_WELL_ ---
*** files: ts.GssOrb ts.guessorb.molden xmldump
    saved to directory /home/kenya/molcas_test/exercise_1
--- Module seward spent 2 seconds ---

--- Start Module: scf at Wed Jul 10 21:30:21 2024 ---

()()()()()()()()()()()()()()()()()()()()()()()()()()()()()()()()()()()()()()()()()()()()()()()()()()

                                                &SCF

                                   only a single process is used
                       available to each process: 2.0 GB of memory, 1 thread
                                            pid: 711987
()()()()()()()()()()()()()()()()()()()()()()()()()()()()()()()()()()()()()()()()()()()()()()()()()()

++    Input section:
      --------------

      Header of the integral files:
      
       Integrals generated by Gateway/Seward, Wed Jul 10 21:30:19 2024


      Cartesian coordinates in Angstrom:
      -----------------------------------------------------
      No.  Label        X            Y            Z        
      -----------------------------------------------------
       1   C1         0.79620437   1.18302262   0.00000000
       2   C2        -0.79620437   1.18302262   0.00000000
       3   C3         1.34362438   0.00990155   0.00000000
       4   C4        -1.34362438   0.00990155   0.00000000
       5   H5        -1.17731607   2.18271563   0.00000000
       6   H6         1.17731607   2.18271563   0.00000000
       7   C7         0.71537694  -1.19498676   0.00000000
       8   C8        -0.71537694  -1.19498676   0.00000000
       9   H9         1.18846301  -2.15793100   0.00000000
      10   H10       -1.18846301  -2.15793100   0.00000000
      -----------------------------------------------------
      Nuclear repulsion energy =  186.23618787
--

++    Orbital specifications:
      -----------------------

      Symmetry species               1
                                     a
      Frozen orbitals                0
      Occupied orbitals             20
      Secondary orbitals            78
      Deleted orbitals               0
      Total number of orbitals      98
      Number of basis functions     98
--

      Molecular charge                           0.000

++    Optimization specifications:
      ----------------------------

      SCF Algorithm: Conventional
      Minimized density differences are used
      Number of density matrices in core                 5
      Maximum number of NDDO SCF iterations            400
      Maximum number of HF SCF iterations              400
      Threshold for SCF energy change             1.00E-09
      Threshold for density matrix                1.00E-04
      Threshold for Fock matrix                   1.50E-04
      Threshold for linear dependence             1.00E-09
      Threshold at which DIIS is turned on        1.50E-01
      Maximum depth in the DIIS procedure                5
      Maximum depth in the BFGS Hessian update          30
      Threshold at which QNR/C2DIIS is turned on  7.50E-02
      Threshold for Norm(delta) (QNR/C2DIIS)      1.00E-03
      All orbitals punched on: SCFORB
--

      Input vectors read from INPORB
      Orbital file label: * RASSCF average (pseudo-natural) orbita


++ Convergence information
                                   SCF        iterations: Energy and convergence statistics

Iter     Tot. SCF        One-elec.       Two-elec.     Energy      Max Dij or  Max Fij      DNorm      TNorm      AccCon     Time
         Energy          Energy          Energy        Change      Delta Norm                                                in Sec.
   1  -228.904140148  -676.546911162   261.406583147   0.00E+00    3.29E-01*   7.96E-02*    7.11E+00   2.56E+02   None         0.
   2  -229.203084259  -677.196726846   261.757454720  -2.99E-01*   1.87E-01*   4.91E-02*    1.69E+00   2.56E+02   EDIIS        0.
   3  -229.244964545  -676.996410193   261.515257782  -4.19E-02*   2.18E-01*   3.31E-02*    6.07E-01   2.56E+02   EDIIS        0.
   4  -229.246861905  -677.126057324   261.643007553  -1.90E-03*   9.32E-02*   2.70E-02*    5.39E-01   2.56E+02   EDIIS        0.
   5  -229.263639161  -677.111357649   261.611530622  -1.68E-02*   5.48E-02*   1.09E-02*    1.77E-01   2.56E+02   c2DIIS       0.
   6  -229.268748211  -677.108897383   261.603961305  -5.11E-03*   3.24E-02*   1.04E-02*    6.06E-02   2.56E+02   QNRc2DIIS    0.
   7  -229.269638492  -677.117707397   261.611881038  -8.90E-04*   3.43E-02*   6.79E-03*    2.36E-02   2.56E+02   QNRc2DIIS    0.
   8  -229.270556723  -677.125529487   261.618784897  -9.18E-04*   1.15E-02*   2.30E-03*    1.28E-02   2.56E+02   QNRc2DIIS    0.
   9  -229.270599317  -677.124036802   261.617249618  -4.26E-05*   3.51E-03*   1.57E-03*    8.08E-03   2.56E+02   QNRc2DIIS    0.
  10  -229.270630588  -677.123102917   261.616284463  -3.13E-05*   1.24E-03*   2.70E-04*    3.17E-03   2.56E+02   QNRc2DIIS    0.
  11  -229.270632068  -677.122833723   261.616013788  -1.48E-06*   6.66E-04    2.00E-04*    2.20E-03   2.56E+02   QNRc2DIIS    0.
  12  -229.270632735  -677.123257656   261.616437054  -6.67E-07*   3.21E-04    5.40E-05     1.02E-03   2.56E+02   QNRc2DIIS    0.
  13  -229.270632834  -677.122753065   261.615932364  -9.90E-08*   9.20E-04    4.14E-05     4.26E-04   2.56E+02   QNRc2DIIS    0.
  14  -229.270632975  -677.123509228   261.616688387  -1.41E-07*   1.44E-04    1.83E-05     8.98E-04   2.56E+02   QNRc2DIIS    0.
  15  -229.270632986  -677.122791269   261.615970416  -1.12E-08*   5.37E-05    8.10E-06     1.59E-04   2.56E+02   QNRc2DIIS    0.
  16  -229.270632988  -677.122914591   261.616093736  -2.27E-09*   1.09E-05    2.52E-06     6.43E-05   2.56E+02   QNRc2DIIS    0.
  17  -229.270632988  -677.122985261   261.616164406  -1.33E-10    4.46E-06    9.07E-07     1.06E-04   2.56E+02   QNRc2DIIS    0.

       Convergence after  17 Macro Iterations
--

 *****************************************************************************************************************************
 *                                                                                                                           *
 *                                             SCF/KS-DFT Program, Final results                                             *
 *                                                                                                                           *
 *                                                                                                                           *
 *                                                                                                                           *
 *                                                       Final Results                                                       *
 *                                                                                                                           *
 *****************************************************************************************************************************

::    Total SCF energy                               -229.2706329884
      One-electron energy                            -677.1229852613
      Two-electron energy                             261.6161644060
      Nuclear repulsion energy                        186.2361878669
      Kinetic energy (interpolated)                   229.1131250034
      Virial theorem                                    1.0006874682
      Total spin, S(S+1)                                0.0000000000
      Total spin, S                                     0.0000000000
      Max non-diagonal density matrix element           0.0000035213
      Max non-diagonal Fock matrix element              0.0000001210


      All orbitals with orbital energies smaller than  E(LUMO)+0.5 are printed

++    Molecular orbitals:
      -------------------

      Title: SCF orbitals

      Molecular orbitals for symmetry species 1: a  

          Orbital            1         2         3         4         5         6         7         8         9        10    
          Energy          -11.2659  -11.2656  -11.2655  -11.2647  -11.2429  -11.2428   -1.1617   -1.0210   -1.0185   -0.8509
          Occ. No.          2.0000    2.0000    2.0000    2.0000    2.0000    2.0000    2.0000    2.0000    2.0000    2.0000

        1 C1     1s         0.7051   -0.0350    0.7001   -0.0301    0.0321   -0.0313   -0.0858    0.0838    0.1086    0.0886
        2 C1     2s         0.0193   -0.0011    0.0192   -0.0008    0.0013   -0.0013    0.1627   -0.1649   -0.2082   -0.1785
        3 C1     *s        -0.0065    0.0004   -0.0134   -0.0016   -0.0084    0.0043    0.1067   -0.1143   -0.1733   -0.1611
        4 C1     2px       -0.0000    0.0000   -0.0001   -0.0000    0.0002   -0.0001   -0.0161   -0.0725    0.0227   -0.0897
        5 C1     *px       -0.0005    0.0001    0.0018    0.0005    0.0007    0.0001   -0.0067   -0.0123    0.0070   -0.0309
        6 C1     2py        0.0001    0.0000   -0.0000   -0.0000   -0.0002    0.0002   -0.0626    0.0850    0.0100    0.0104
        7 C1     *py        0.0005   -0.0002    0.0024    0.0012    0.0042   -0.0023   -0.0058   -0.0100   -0.0061   -0.0315
        8 C1     2pz        0.0000   -0.0000    0.0000   -0.0000    0.0000   -0.0000   -0.0000    0.0000   -0.0000    0.0000
        9 C1     *pz       -0.0000    0.0000   -0.0000    0.0000   -0.0000    0.0000    0.0000   -0.0000    0.0000   -0.0000
       10 C1     *200      -0.0011    0.0001   -0.0006    0.0000    0.0002   -0.0001    0.0026    0.0046   -0.0050    0.0033
       11 C1     *110      -0.0001   -0.0000   -0.0001    0.0000   -0.0001    0.0001   -0.0011    0.0054    0.0003    0.0019
       12 C1     *101      -0.0000   -0.0000   -0.0000   -0.0000   -0.0000   -0.0000   -0.0000   -0.0000    0.0000   -0.0000
       13 C1     *020      -0.0006    0.0001   -0.0004    0.0001    0.0001   -0.0001    0.0054   -0.0082   -0.0053   -0.0072
       14 C1     *011       0.0000   -0.0000    0.0000   -0.0000    0.0000    0.0000    0.0000   -0.0000   -0.0000    0.0000
       15 C1     *002      -0.0010    0.0000   -0.0008    0.0001    0.0000   -0.0000   -0.0046    0.0037    0.0053    0.0038
       16 C2     1s         0.6997   -0.0337   -0.7055    0.0302   -0.0321   -0.0313   -0.0858   -0.0838    0.1087   -0.0886
       17 C2     2s         0.0192   -0.0010   -0.0194    0.0008   -0.0013   -0.0013    0.1627    0.1649   -0.2082    0.1785
       18 C2     *s        -0.0064    0.0004    0.0135    0.0016    0.0084    0.0043    0.1067    0.1143   -0.1734    0.1611
       19 C2     2px        0.0000   -0.0000   -0.0001   -0.0000    0.0002    0.0001    0.0161   -0.0725   -0.0227   -0.0897
       20 C2     *px        0.0005   -0.0001    0.0018    0.0005    0.0007   -0.0001    0.0067   -0.0123   -0.0070   -0.0309
       21 C2     2py        0.0001    0.0000    0.0000    0.0000    0.0002    0.0002   -0.0626   -0.0850    0.0100   -0.0104
       22 C2     *py        0.0005   -0.0002   -0.0024   -0.0012   -0.0042   -0.0023   -0.0058    0.0100   -0.0061    0.0315
       23 C2     2pz        0.0000    0.0000    0.0000    0.0000   -0.0000    0.0000   -0.0000   -0.0000    0.0000   -0.0000
       24 C2     *pz       -0.0000   -0.0000    0.0000   -0.0000    0.0000   -0.0000    0.0000    0.0000    0.0000    0.0000
       25 C2     *200      -0.0011    0.0001    0.0006   -0.0000   -0.0002   -0.0001    0.0026   -0.0046   -0.0050   -0.0033
       26 C2     *110       0.0001    0.0000   -0.0001    0.0000   -0.0001   -0.0001    0.0011    0.0054   -0.0003    0.0019
       27 C2     *101       0.0000   -0.0000    0.0000    0.0000   -0.0000   -0.0000   -0.0000   -0.0000   -0.0000   -0.0000
       28 C2     *020      -0.0006    0.0001    0.0004   -0.0001   -0.0001   -0.0001    0.0054    0.0082   -0.0054    0.0072
       29 C2     *011      -0.0000   -0.0000   -0.0000    0.0000    0.0000    0.0000    0.0000    0.0000   -0.0000   -0.0000
       30 C2     *002      -0.0010    0.0000    0.0008   -0.0001   -0.0000   -0.0000   -0.0046   -0.0037    0.0053   -0.0038
       31 C3     1s         0.0318    0.0196    0.0322    0.0209   -0.7035    0.7027   -0.0960    0.1284    0.0156   -0.0059
       32 C3     2s         0.0005    0.0003    0.0005    0.0004   -0.0197    0.0194    0.1827   -0.2477   -0.0294    0.0137
       33 C3     *s         0.0026    0.0022    0.0064    0.0060    0.0155   -0.0110    0.1002   -0.1890   -0.0180    0.0064
       34 C3     2px        0.0001    0.0001    0.0001    0.0001    0.0008   -0.0007   -0.0729    0.0651    0.0047   -0.0087
       35 C3     *px       -0.0005   -0.0005   -0.0019   -0.0019   -0.0044    0.0028   -0.0078    0.0151   -0.0016   -0.0024
       36 C3     2py       -0.0001    0.0001   -0.0001    0.0001    0.0001   -0.0000    0.0012   -0.0211   -0.1377   -0.2220
       37 C3     *py        0.0012   -0.0011    0.0014   -0.0011    0.0004   -0.0002   -0.0020   -0.0016   -0.0087   -0.0313
       38 C3     2pz       -0.0000    0.0000    0.0000   -0.0000    0.0000   -0.0000   -0.0000   -0.0000   -0.0000   -0.0000
       39 C3     *pz        0.0000   -0.0000    0.0000   -0.0000   -0.0000    0.0000    0.0000   -0.0000   -0.0000   -0.0000
       40 C3     *200      -0.0001   -0.0001   -0.0002   -0.0002    0.0009   -0.0009   -0.0003    0.0027    0.0008    0.0004
       41 C3     *110      -0.0000   -0.0000   -0.0000   -0.0001   -0.0000    0.0000    0.0008    0.0006    0.0115    0.0110
       42 C3     *101       0.0000   -0.0000    0.0000   -0.0000    0.0000    0.0000    0.0000   -0.0000   -0.0000   -0.0000
       43 C3     *020      -0.0001   -0.0002   -0.0001   -0.0002    0.0003   -0.0003    0.0051   -0.0078    0.0001    0.0014
       44 C3     *011      -0.0000   -0.0000   -0.0000   -0.0000    0.0000   -0.0000    0.0000   -0.0000   -0.0000    0.0000
       45 C3     *002      -0.0001   -0.0001   -0.0001   -0.0001    0.0009   -0.0009   -0.0051    0.0058    0.0004   -0.0004
       46 C4     1s         0.0316    0.0197   -0.0324   -0.0208    0.7027    0.7035   -0.0960   -0.1284    0.0156    0.0059
       47 C4     2s         0.0005    0.0003   -0.0005   -0.0004    0.0197    0.0194    0.1827    0.2477   -0.0294   -0.0137
       48 C4     *s         0.0025    0.0022   -0.0064   -0.0060   -0.0155   -0.0110    0.1002    0.1890   -0.0181   -0.0064
       49 C4     2px       -0.0001   -0.0001    0.0001    0.0001    0.0008    0.0007    0.0729    0.0651   -0.0047   -0.0087
       50 C4     *px        0.0005    0.0005   -0.0019   -0.0019   -0.0044   -0.0028    0.0078    0.0151    0.0016   -0.0024
       51 C4     2py       -0.0001    0.0001    0.0001   -0.0001   -0.0001   -0.0000    0.0012    0.0210   -0.1377    0.2220
       52 C4     *py        0.0012   -0.0011   -0.0014    0.0011   -0.0004   -0.0002   -0.0020    0.0016   -0.0087    0.0313
       53 C4     2pz       -0.0000    0.0000   -0.0000   -0.0000   -0.0000    0.0000   -0.0000   -0.0000    0.0000    0.0000
       54 C4     *pz        0.0000   -0.0000    0.0000    0.0000   -0.0000    0.0000   -0.0000   -0.0000   -0.0000    0.0000
       55 C4     *200      -0.0001   -0.0001    0.0002    0.0002   -0.0009   -0.0009   -0.0003   -0.0027    0.0008   -0.0004
       56 C4     *110       0.0000    0.0000   -0.0000   -0.0001   -0.0000   -0.0000   -0.0008    0.0006   -0.0115    0.0110
       57 C4     *101      -0.0000   -0.0000    0.0000   -0.0000   -0.0000    0.0000    0.0000    0.0000    0.0000   -0.0000
       58 C4     *020      -0.0001   -0.0002    0.0001    0.0002   -0.0003   -0.0003    0.0051    0.0078    0.0001   -0.0014
       59 C4     *011       0.0000    0.0000   -0.0000    0.0000   -0.0000   -0.0000    0.0000    0.0000   -0.0000    0.0000
       60 C4     *002      -0.0001   -0.0001    0.0001    0.0001   -0.0009   -0.0009   -0.0051   -0.0058    0.0004    0.0004
       61 H5     1s        -0.0003    0.0000    0.0002    0.0001    0.0000    0.0000    0.0321    0.0397   -0.0705    0.0847
       62 H5     *s         0.0014    0.0001   -0.0010    0.0003    0.0007    0.0005    0.0026   -0.0004   -0.0138    0.0180
       63 H6     1s        -0.0003    0.0000   -0.0002   -0.0001   -0.0000    0.0000    0.0321   -0.0397   -0.0705   -0.0847
       64 H6     *s         0.0014    0.0001    0.0010   -0.0003   -0.0007    0.0005    0.0026    0.0004   -0.0138   -0.0180
       65 C7     1s         0.0335    0.7018    0.0297    0.7042    0.0227   -0.0216   -0.0979    0.0656   -0.1087   -0.0955
       66 C7     2s         0.0008    0.0193    0.0009    0.0196    0.0009   -0.0009    0.1881   -0.1291    0.2117    0.1933
       67 C7     *s        -0.0001   -0.0062   -0.0027   -0.0144   -0.0080    0.0036    0.1187   -0.0924    0.1722    0.1703
       68 C7     2px       -0.0000    0.0001   -0.0000   -0.0002    0.0001   -0.0001   -0.0343   -0.0718   -0.0564    0.1175
       69 C7     *px        0.0000   -0.0006    0.0008    0.0023    0.0011    0.0000   -0.0067   -0.0111   -0.0051    0.0508
       70 C7     2py       -0.0000    0.0001    0.0000    0.0002    0.0002   -0.0003    0.0564   -0.0681   -0.0162    0.0148
       71 C7     *py        0.0001   -0.0005   -0.0012   -0.0027   -0.0037    0.0019    0.0058   -0.0016   -0.0109   -0.0266
       72 C7     2pz        0.0000   -0.0000    0.0000   -0.0000   -0.0000   -0.0000    0.0000   -0.0000    0.0000    0.0000
       73 C7     *pz       -0.0000    0.0000    0.0000    0.0000   -0.0000    0.0000   -0.0000    0.0000    0.0000    0.0000
       74 C7     *200      -0.0001   -0.0009   -0.0000   -0.0005    0.0002   -0.0001    0.0041    0.0029    0.0064   -0.0027
       75 C7     *110      -0.0000    0.0000   -0.0000    0.0001    0.0002   -0.0002    0.0010   -0.0054   -0.0022    0.0008
       76 C7     *101      -0.0000   -0.0000   -0.0000   -0.0000   -0.0000   -0.0000    0.0000    0.0000    0.0000   -0.0000
       77 C7     *020       0.0000   -0.0007    0.0000   -0.0005    0.0002   -0.0001    0.0047   -0.0076    0.0022    0.0078
       78 C7     *011      -0.0000   -0.0000    0.0000   -0.0000   -0.0000   -0.0000    0.0000   -0.0000    0.0000    0.0000
       79 C7     *002      -0.0001   -0.0010   -0.0000   -0.0009    0.0001   -0.0000   -0.0052    0.0032   -0.0051   -0.0042
       80 C8     1s         0.0334    0.7037   -0.0286   -0.7023   -0.0227   -0.0216   -0.0979   -0.0657   -0.1087    0.0955
       81 C8     2s         0.0008    0.0193   -0.0008   -0.0195   -0.0009   -0.0009    0.1881    0.1291    0.2116   -0.1933
       82 C8     *s        -0.0001   -0.0063    0.0027    0.0144    0.0080    0.0036    0.1187    0.0924    0.1721   -0.1703
       83 C8     2px        0.0000   -0.0001   -0.0000   -0.0002    0.0001    0.0001    0.0343   -0.0717    0.0564    0.1175
       84 C8     *px       -0.0000    0.0006    0.0008    0.0023    0.0011   -0.0000    0.0067   -0.0111    0.0051    0.0508
       85 C8     2py       -0.0000    0.0001   -0.0000   -0.0002   -0.0002   -0.0003    0.0564    0.0681   -0.0162   -0.0148
       86 C8     *py        0.0002   -0.0005    0.0011    0.0027    0.0037    0.0019    0.0058    0.0015   -0.0109    0.0266
       87 C8     2pz        0.0000   -0.0000   -0.0000    0.0000    0.0000    0.0000    0.0000    0.0000   -0.0000   -0.0000
       88 C8     *pz       -0.0000    0.0000   -0.0000   -0.0000    0.0000   -0.0000   -0.0000   -0.0000   -0.0000    0.0000
       89 C8     *200      -0.0001   -0.0009    0.0000    0.0005   -0.0002   -0.0001    0.0041   -0.0029    0.0064    0.0027
       90 C8     *110       0.0000   -0.0000   -0.0000    0.0001    0.0002    0.0002   -0.0010   -0.0054    0.0022    0.0008
       91 C8     *101      -0.0000   -0.0000   -0.0000    0.0000   -0.0000   -0.0000   -0.0000    0.0000   -0.0000    0.0000
       92 C8     *020       0.0000   -0.0007   -0.0001    0.0005   -0.0002   -0.0001    0.0047    0.0076    0.0022   -0.0078
       93 C8     *011       0.0000    0.0000   -0.0000   -0.0000    0.0000    0.0000    0.0000    0.0000    0.0000   -0.0000
       94 C8     *002      -0.0001   -0.0010    0.0000    0.0009   -0.0001   -0.0000   -0.0052   -0.0032   -0.0051    0.0042
       95 H9     1s        -0.0000   -0.0002   -0.0001   -0.0002   -0.0000    0.0000    0.0379   -0.0351    0.0711    0.0965
       96 H9     *s         0.0002    0.0013   -0.0002    0.0008   -0.0006    0.0004    0.0035   -0.0052    0.0125    0.0230
       97 H10    1s        -0.0000   -0.0002    0.0001    0.0002    0.0000    0.0000    0.0379    0.0352    0.0711   -0.0965
       98 H10    *s         0.0002    0.0013    0.0002   -0.0008    0.0006    0.0004    0.0035    0.0052    0.0125   -0.0230

          Orbital           11        12        13        14        15        16        17        18        19        20    
          Energy           -0.7966   -0.6634   -0.6547   -0.6418   -0.5568   -0.5423   -0.5147   -0.3644   -0.3357   -0.2754
          Occ. No.          2.0000    2.0000    2.0000    2.0000    2.0000    2.0000    2.0000    2.0000    2.0000    2.0000

        1 C1     1s        -0.0474   -0.0414    0.0121    0.0092    0.0057    0.0169    0.0000    0.0000   -0.0000    0.0437
        2 C1     2s         0.0950    0.0836   -0.0222   -0.0209   -0.0141   -0.0354   -0.0000   -0.0000    0.0000   -0.1075
        3 C1     *s         0.0883    0.0902   -0.0344   -0.0129    0.0044   -0.0455   -0.0000    0.0000   -0.0000   -0.0602
        4 C1     2px       -0.0560    0.0435   -0.0999    0.1455   -0.0225    0.3070    0.0000    0.0000    0.0000    0.0723
        5 C1     *px       -0.0195    0.0177   -0.0446    0.0629   -0.0176    0.1507    0.0000   -0.0000    0.0000    0.1193
        6 C1     2py        0.2029    0.2368    0.2164    0.0840    0.2129    0.0797    0.0000    0.0000   -0.0000    0.0603
        7 C1     *py        0.0815    0.1222    0.0880    0.0380    0.0942    0.0504    0.0000   -0.0000    0.0000   -0.1210
        8 C1     2pz        0.0000    0.0000    0.0000   -0.0000    0.0000   -0.0000    0.2066   -0.2139   -0.2633    0.0000
        9 C1     *pz       -0.0000   -0.0000   -0.0000   -0.0000   -0.0000    0.0000    0.1364   -0.1665   -0.2297    0.0000
       10 C1     *200       0.0040   -0.0011    0.0008   -0.0033   -0.0009   -0.0083    0.0000    0.0000   -0.0000    0.0110
       11 C1     *110       0.0067    0.0165    0.0092   -0.0022    0.0161   -0.0029   -0.0000    0.0000    0.0000   -0.0089
       12 C1     *101      -0.0000   -0.0000   -0.0000    0.0000   -0.0000    0.0000   -0.0027   -0.0137    0.0086    0.0000
       13 C1     *020       0.0040    0.0070    0.0042    0.0031    0.0066    0.0075    0.0000   -0.0000    0.0000   -0.0101
       14 C1     *011      -0.0000   -0.0000   -0.0000   -0.0000    0.0000   -0.0000   -0.0118    0.0160    0.0028    0.0000
       15 C1     *002      -0.0022   -0.0020    0.0003    0.0003   -0.0003   -0.0001    0.0000   -0.0000   -0.0000   -0.0006
       16 C2     1s        -0.0474    0.0414    0.0121    0.0092   -0.0057    0.0169   -0.0000    0.0000    0.0000   -0.0437
       17 C2     2s         0.0950   -0.0836   -0.0222   -0.0209    0.0141   -0.0354   -0.0000   -0.0000   -0.0000    0.1075
       18 C2     *s         0.0883   -0.0902   -0.0344   -0.0129   -0.0044   -0.0455    0.0000   -0.0000   -0.0000    0.0602
       19 C2     2px        0.0560    0.0435    0.0999   -0.1455   -0.0225   -0.3070   -0.0000    0.0000   -0.0000    0.0723
       20 C2     *px        0.0195    0.0177    0.0446   -0.0629   -0.0176   -0.1507   -0.0000   -0.0000    0.0000    0.1193
       21 C2     2py        0.2029   -0.2368    0.2164    0.0840   -0.2129    0.0797    0.0000   -0.0000   -0.0000   -0.0603
       22 C2     *py        0.0815   -0.1222    0.0880    0.0380   -0.0942    0.0504   -0.0000    0.0000   -0.0000    0.1210
       23 C2     2pz        0.0000    0.0000   -0.0000    0.0000    0.0000   -0.0000    0.2066    0.2139   -0.2633   -0.0000
       24 C2     *pz        0.0000    0.0000   -0.0000    0.0000    0.0000   -0.0000    0.1364    0.1665   -0.2297    0.0000
       25 C2     *200       0.0040    0.0011    0.0008   -0.0033    0.0009   -0.0083    0.0000    0.0000   -0.0000   -0.0110
       26 C2     *110      -0.0067    0.0165   -0.0092    0.0022    0.0161    0.0029    0.0000    0.0000   -0.0000   -0.0089
       27 C2     *101       0.0000    0.0000    0.0000   -0.0000   -0.0000   -0.0000    0.0027   -0.0137   -0.0086   -0.0000
       28 C2     *020       0.0040   -0.0070    0.0042    0.0031   -0.0066    0.0075   -0.0000    0.0000    0.0000    0.0101
       29 C2     *011      -0.0000    0.0000   -0.0000   -0.0000    0.0000   -0.0000   -0.0118   -0.0160    0.0028   -0.0000
       30 C2     *002      -0.0022    0.0020    0.0003    0.0003    0.0003   -0.0001    0.0000   -0.0000   -0.0000    0.0006
       31 C3     1s         0.0816    0.0551    0.0080   -0.0577   -0.0098   -0.0195   -0.0000   -0.0000    0.0000   -0.0459
       32 C3     2s        -0.1640   -0.1128   -0.0149    0.1182    0.0219    0.0396    0.0000   -0.0000   -0.0000    0.0876
       33 C3     *s        -0.0949   -0.0383   -0.0041    0.1438    0.0214    0.0541    0.0000   -0.0000    0.0000   -0.0289
       34 C3     2px        0.0401    0.0705   -0.0262    0.1196   -0.0146    0.0628    0.0000    0.0000   -0.0000    0.3645
       35 C3     *px       -0.0120   -0.0007   -0.0135    0.0560   -0.0028    0.0346   -0.0000    0.0000   -0.0000    0.3815
       36 C3     2py        0.0089   -0.0278   -0.2622   -0.0714   -0.2443    0.0923    0.0000   -0.0000   -0.0000   -0.0067
       37 C3     *py        0.0096   -0.0015   -0.0435   -0.0159   -0.0587    0.0259    0.0000    0.0000   -0.0000   -0.0159
       38 C3     2pz       -0.0000   -0.0000    0.0000    0.0000   -0.0000   -0.0000    0.2186   -0.3079   -0.0361    0.0000
       39 C3     *pz       -0.0000   -0.0000    0.0000   -0.0000   -0.0000   -0.0000    0.1160   -0.2149   -0.0278   -0.0000
       40 C3     *200       0.0005   -0.0022    0.0019   -0.0090    0.0006   -0.0030    0.0000    0.0000    0.0000   -0.0086
       41 C3     *110       0.0004    0.0035    0.0171    0.0022    0.0177    0.0115    0.0000   -0.0000   -0.0000    0.0021
       42 C3     *101      -0.0000   -0.0000   -0.0000   -0.0000   -0.0000   -0.0000   -0.0153    0.0148    0.0009   -0.0000
       43 C3     *020      -0.0028    0.0019   -0.0010    0.0079   -0.0002    0.0022    0.0000   -0.0000   -0.0000    0.0011
       44 C3     *011      -0.0000    0.0000    0.0000    0.0000    0.0000    0.0000    0.0015   -0.0047   -0.0241   -0.0000
       45 C3     *002       0.0031    0.0022    0.0000   -0.0002   -0.0002    0.0003   -0.0000    0.0000   -0.0000    0.0030
       46 C4     1s         0.0816   -0.0551    0.0081   -0.0577    0.0098   -0.0195    0.0000    0.0000    0.0000    0.0459
       47 C4     2s        -0.1640    0.1128   -0.0149    0.1182   -0.0219    0.0396   -0.0000   -0.0000   -0.0000   -0.0876
       48 C4     *s        -0.0949    0.0383   -0.0041    0.1438   -0.0214    0.0541   -0.0000    0.0000    0.0000    0.0289
       49 C4     2px       -0.0401    0.0705    0.0262   -0.1196   -0.0146   -0.0628   -0.0000   -0.0000    0.0000    0.3645
       50 C4     *px        0.0120   -0.0007    0.0135   -0.0560   -0.0028   -0.0346   -0.0000    0.0000   -0.0000    0.3815
       51 C4     2py        0.0089    0.0278   -0.2622   -0.0714    0.2443    0.0923    0.0000    0.0000    0.0000    0.0067
       52 C4     *py        0.0096    0.0015   -0.0435   -0.0159    0.0587    0.0259   -0.0000   -0.0000    0.0000    0.0159
       53 C4     2pz        0.0000   -0.0000    0.0000   -0.0000   -0.0000   -0.0000    0.2186    0.3079   -0.0361   -0.0000
       54 C4     *pz       -0.0000   -0.0000    0.0000   -0.0000   -0.0000   -0.0000    0.1160    0.2149   -0.0279   -0.0000
       55 C4     *200       0.0005    0.0022    0.0019   -0.0090   -0.0006   -0.0030   -0.0000    0.0000    0.0000    0.0086
       56 C4     *110      -0.0004    0.0035   -0.0171   -0.0022    0.0177   -0.0115   -0.0000   -0.0000   -0.0000    0.0021
       57 C4     *101      -0.0000   -0.0000    0.0000   -0.0000   -0.0000   -0.0000    0.0153    0.0148   -0.0009   -0.0000
       58 C4     *020      -0.0028   -0.0019   -0.0010    0.0079    0.0002    0.0022   -0.0000   -0.0000   -0.0000   -0.0011
       59 C4     *011      -0.0000   -0.0000   -0.0000    0.0000    0.0000    0.0000    0.0015    0.0047   -0.0241    0.0000
       60 C4     *002       0.0031   -0.0022    0.0000   -0.0002    0.0002    0.0003   -0.0000   -0.0000   -0.0000   -0.0030
       61 H5     1s         0.1266   -0.1778    0.0879    0.0657   -0.1221    0.1041   -0.0000    0.0000    0.0000    0.0270
       62 H5     *s         0.0551   -0.0997    0.0595    0.0417   -0.0974    0.0778    0.0000   -0.0000    0.0000   -0.0106
       63 H6     1s         0.1266    0.1778    0.0879    0.0657    0.1221    0.1041    0.0000   -0.0000    0.0000   -0.0270
       64 H6     *s         0.0551    0.0997    0.0595    0.0417    0.0974    0.0778   -0.0000    0.0000   -0.0000    0.0106
       65 C7     1s        -0.0386   -0.0382   -0.0095    0.0086    0.0036   -0.0131    0.0000    0.0000   -0.0000    0.0359
       66 C7     2s         0.0774    0.0778    0.0205   -0.0221   -0.0029    0.0294    0.0000   -0.0000   -0.0000   -0.0914
       67 C7     *s         0.0747    0.0719    0.0271    0.0075   -0.0247    0.0275   -0.0000    0.0000   -0.0000   -0.0557
       68 C7     2px       -0.0786    0.0529    0.0438    0.3019    0.0034   -0.2235   -0.0000   -0.0000    0.0000    0.0277
       69 C7     *px       -0.0175    0.0329    0.0204    0.1199    0.0099   -0.0973    0.0000    0.0000   -0.0000    0.0775
       70 C7     2py       -0.1826   -0.1650    0.2469   -0.0520    0.2645    0.0657    0.0000    0.0000   -0.0000   -0.0530
       71 C7     *py       -0.0678   -0.1018    0.0992   -0.0293    0.1389    0.0396   -0.0000    0.0000   -0.0000    0.1129
       72 C7     2pz        0.0000    0.0000    0.0000    0.0000    0.0000   -0.0000    0.2191   -0.1466    0.2833   -0.0000
       73 C7     *pz        0.0000    0.0000   -0.0000    0.0000   -0.0000   -0.0000    0.1437   -0.1172    0.2451    0.0000
       74 C7     *200       0.0040   -0.0002   -0.0000   -0.0053    0.0004    0.0060    0.0000   -0.0000   -0.0000    0.0098
       75 C7     *110      -0.0075   -0.0154    0.0077    0.0039    0.0243    0.0021   -0.0000    0.0000    0.0000    0.0065
       76 C7     *101       0.0000   -0.0000    0.0000   -0.0000   -0.0000   -0.0000   -0.0072   -0.0120   -0.0161    0.0000
       77 C7     *020      -0.0001    0.0033   -0.0039    0.0070   -0.0061   -0.0085    0.0000   -0.0000    0.0000   -0.0092
       78 C7     *011      -0.0000   -0.0000    0.0000   -0.0000   -0.0000   -0.0000    0.0106   -0.0134   -0.0007    0.0000
       79 C7     *002      -0.0016   -0.0016   -0.0003   -0.0001    0.0006    0.0003   -0.0000   -0.0000   -0.0000   -0.0006
       80 C8     1s        -0.0386    0.0382   -0.0095    0.0086   -0.0036   -0.0131   -0.0000   -0.0000   -0.0000   -0.0359
       81 C8     2s         0.0774   -0.0778    0.0205   -0.0221    0.0029    0.0294   -0.0000   -0.0000   -0.0000    0.0914
       82 C8     *s         0.0747   -0.0719    0.0271    0.0075    0.0247    0.0275    0.0000    0.0000    0.0000    0.0557
       83 C8     2px        0.0786    0.0529   -0.0438   -0.3019    0.0034    0.2235    0.0000   -0.0000   -0.0000    0.0277
       84 C8     *px        0.0175    0.0329   -0.0204   -0.1199    0.0099    0.0973    0.0000    0.0000   -0.0000    0.0775
       85 C8     2py       -0.1826    0.1650    0.2469   -0.0520   -0.2645    0.0657    0.0000    0.0000    0.0000    0.0530
       86 C8     *py       -0.0678    0.1019    0.0992   -0.0293   -0.1389    0.0396    0.0000   -0.0000   -0.0000   -0.1129
       87 C8     2pz       -0.0000    0.0000    0.0000    0.0000   -0.0000   -0.0000    0.2191    0.1466    0.2833    0.0000
       88 C8     *pz        0.0000   -0.0000   -0.0000   -0.0000    0.0000    0.0000    0.1437    0.1172    0.2450    0.0000
       89 C8     *200       0.0040    0.0002   -0.0000   -0.0053   -0.0004    0.0060   -0.0000   -0.0000   -0.0000   -0.0098
       90 C8     *110       0.0075   -0.0154   -0.0077   -0.0039    0.0243   -0.0021    0.0000    0.0000    0.0000    0.0065
       91 C8     *101      -0.0000    0.0000    0.0000    0.0000   -0.0000   -0.0000    0.0072   -0.0120    0.0161   -0.0000
       92 C8     *020      -0.0001   -0.0033   -0.0039    0.0070    0.0061   -0.0085    0.0000    0.0000    0.0000    0.0092
       93 C8     *011      -0.0000    0.0000    0.0000   -0.0000   -0.0000   -0.0000    0.0106    0.0134   -0.0007   -0.0000
       94 C8     *002      -0.0016    0.0016   -0.0003   -0.0001   -0.0006    0.0003   -0.0000   -0.0000   -0.0000    0.0006
       95 H9     1s         0.0967    0.1370   -0.1090    0.0955   -0.1642   -0.0933    0.0000   -0.0000    0.0000   -0.0254
       96 H9     *s         0.0411    0.0711   -0.0719    0.0602   -0.1243   -0.0743   -0.0000    0.0000   -0.0000    0.0107
       97 H10    1s         0.0967   -0.1370   -0.1090    0.0955    0.1642   -0.0933   -0.0000   -0.0000    0.0000    0.0254
       98 H10    *s         0.0411   -0.0711   -0.0719    0.0602    0.1243   -0.0743    0.0000    0.0000   -0.0000   -0.0107

          Orbital           21        22        23        24        25        26        27        28        29        30    
          Energy           -0.0009    0.1021    0.1825    0.2557    0.2763    0.3025    0.3203    0.3688    0.4134    0.4468
          Occ. No.          0.0000    0.0000    0.0000    0.0000    0.0000    0.0000    0.0000    0.0000    0.0000    0.0000

        1 C1     1s         0.0072    0.0000    0.0000    0.0557   -0.0346    0.0479    0.0702    0.0000   -0.0556   -0.0380
        2 C1     2s         0.0083   -0.0000   -0.0000   -0.0889    0.0167   -0.1157   -0.0840    0.0000    0.0604   -0.0213
        3 C1     *s        -0.1845    0.0000   -0.0000   -0.6913    0.9866    0.0452   -1.2519   -0.0000    1.0252    1.3317
        4 C1     2px        0.1850    0.0000    0.0000   -0.1087    0.0613   -0.0555    0.0666   -0.0000   -0.2727   -0.0371
        5 C1     *px        0.1364    0.0000    0.0000   -0.3218    0.3419   -0.2366    0.3423   -0.0000   -1.3543    0.2677
        6 C1     2py       -0.0548   -0.0000    0.0000   -0.0897    0.1451   -0.1043   -0.1040    0.0000   -0.0840   -0.0420
        7 C1     *py       -0.0225   -0.0000    0.0000   -0.5466    0.4075   -1.5467   -0.7806    0.0000   -0.5078   -1.3200
        8 C1     2pz        0.0000   -0.2718   -0.1566    0.0000   -0.0000   -0.0000   -0.0000   -0.2246   -0.0000   -0.0000
        9 C1     *pz        0.0000   -0.4152   -0.3743    0.0000   -0.0000   -0.0000    0.0000   -0.6303    0.0000   -0.0000
       10 C1     *200      -0.0119    0.0000   -0.0000   -0.0015    0.0001    0.0007    0.0064   -0.0000   -0.0129    0.0084
       11 C1     *110       0.0174    0.0000    0.0000   -0.0014   -0.0002   -0.0053   -0.0051   -0.0000   -0.0054    0.0083
       12 C1     *101       0.0000   -0.0134    0.0221   -0.0000    0.0000   -0.0000    0.0000   -0.0027   -0.0000    0.0000
       13 C1     *020       0.0118   -0.0000    0.0000    0.0047    0.0004    0.0093   -0.0046    0.0000    0.0123   -0.0049
       14 C1     *011      -0.0000   -0.0017   -0.0248   -0.0000    0.0000   -0.0000    0.0000   -0.0219    0.0000   -0.0000
       15 C1     *002       0.0003   -0.0000   -0.0000    0.0000   -0.0026   -0.0039    0.0002   -0.0000    0.0014   -0.0042
       16 C2     1s         0.0072   -0.0000   -0.0000    0.0557   -0.0346   -0.0479   -0.0702   -0.0000    0.0556   -0.0380
       17 C2     2s         0.0083    0.0000    0.0000   -0.0889    0.0167    0.1157    0.0840    0.0000   -0.0604   -0.0213
       18 C2     *s        -0.1845    0.0000   -0.0000   -0.6913    0.9866   -0.0452    1.2519   -0.0000   -1.0252    1.3317
       19 C2     2px       -0.1850    0.0000   -0.0000    0.1087   -0.0613   -0.0555    0.0666   -0.0000   -0.2727    0.0371
       20 C2     *px       -0.1364    0.0000    0.0000    0.3218   -0.3419   -0.2366    0.3423   -0.0000   -1.3543   -0.2677
       21 C2     2py       -0.0548   -0.0000   -0.0000   -0.0897    0.1451    0.1043    0.1040    0.0000    0.0840   -0.0420
       22 C2     *py       -0.0225    0.0000   -0.0000   -0.5466    0.4075    1.5467    0.7806    0.0000    0.5078   -1.3200
       23 C2     2pz        0.0000    0.2718   -0.1566   -0.0000   -0.0000   -0.0000   -0.0000    0.2246   -0.0000   -0.0000
       24 C2     *pz        0.0000    0.4152   -0.3743    0.0000   -0.0000   -0.0000   -0.0000    0.6303   -0.0000    0.0000
       25 C2     *200      -0.0119   -0.0000   -0.0000   -0.0015    0.0001   -0.0007   -0.0064   -0.0000    0.0129    0.0084
       26 C2     *110      -0.0174    0.0000    0.0000    0.0014    0.0002   -0.0053   -0.0051    0.0000   -0.0054   -0.0083
       27 C2     *101      -0.0000   -0.0134   -0.0221    0.0000   -0.0000   -0.0000   -0.0000   -0.0027   -0.0000    0.0000
       28 C2     *020       0.0118   -0.0000    0.0000    0.0047    0.0004   -0.0093    0.0046   -0.0000   -0.0123   -0.0049
       29 C2     *011      -0.0000    0.0017   -0.0248    0.0000    0.0000   -0.0000   -0.0000    0.0219   -0.0000    0.0000
       30 C2     *002       0.0003   -0.0000   -0.0000    0.0000   -0.0026    0.0039   -0.0002   -0.0000   -0.0014   -0.0042
       31 C3     1s         0.0332    0.0000    0.0000   -0.0189    0.0064   -0.0077    0.0033   -0.0000   -0.0182    0.1062
       32 C3     2s        -0.0407   -0.0000   -0.0000    0.0409   -0.0136    0.1064   -0.0030   -0.0000    0.0035   -0.1173
       33 C3     *s        -0.1909   -0.0000    0.0000   -0.0765   -0.0645   -1.8167   -0.0608    0.0000    0.4039   -3.4159
       34 C3     2px       -0.3130    0.0000    0.0000    0.0172    0.0052   -0.0693   -0.0045    0.0000    0.0338    0.0234
       35 C3     *px       -0.3903    0.0000    0.0000    0.4015    0.0329    0.7556   -0.0711   -0.0000    0.0998    1.2219
       36 C3     2py        0.0236    0.0000    0.0000    0.0016   -0.0189   -0.0008    0.0511   -0.0000    0.0223    0.0428
       37 C3     *py        0.0155   -0.0000   -0.0000   -0.0296   -0.3221   -0.1498    0.0280   -0.0000   -0.3005    0.0761
       38 C3     2pz        0.0000    0.0306    0.3162    0.0000   -0.0000    0.0000   -0.0000    0.2676   -0.0000    0.0000
       39 C3     *pz        0.0000    0.0498    0.6066   -0.0000   -0.0000    0.0000   -0.0000    0.7225   -0.0000    0.0000
       40 C3     *200       0.0021    0.0000   -0.0000    0.0064    0.0007    0.0026   -0.0001   -0.0000    0.0019    0.0006
       41 C3     *110       0.0020   -0.0000   -0.0000   -0.0020    0.0143   -0.0017    0.0098   -0.0000   -0.0307   -0.0010
       42 C3     *101       0.0000   -0.0010    0.0010   -0.0000    0.0000   -0.0000   -0.0000    0.0055    0.0000    0.0000
       43 C3     *020       0.0061   -0.0000    0.0000   -0.0128   -0.0009   -0.0144    0.0030   -0.0000   -0.0085   -0.0154
       44 C3     *011       0.0000   -0.0337   -0.0027   -0.0000   -0.0000   -0.0000   -0.0000   -0.0001   -0.0000   -0.0000
       45 C3     *002      -0.0023    0.0000    0.0000    0.0024    0.0000    0.0063   -0.0012   -0.0000    0.0020    0.0015
       46 C4     1s         0.0332   -0.0000   -0.0000   -0.0189    0.0064    0.0077   -0.0033    0.0000    0.0182    0.1062
       47 C4     2s        -0.0407    0.0000    0.0000    0.0409   -0.0136   -0.1064    0.0030   -0.0000   -0.0035   -0.1173
       48 C4     *s        -0.1909    0.0000   -0.0000   -0.0765   -0.0646    1.8167    0.0608    0.0000   -0.4039   -3.4159
       49 C4     2px        0.3130    0.0000    0.0000   -0.0172   -0.0052   -0.0693   -0.0045    0.0000    0.0338   -0.0234
       50 C4     *px        0.3903    0.0000   -0.0000   -0.4015   -0.0329    0.7556   -0.0711    0.0000    0.0998   -1.2219
       51 C4     2py        0.0236   -0.0000    0.0000    0.0016   -0.0189    0.0008   -0.0511    0.0000   -0.0223    0.0428
       52 C4     *py        0.0155    0.0000    0.0000   -0.0296   -0.3221    0.1498   -0.0280    0.0000    0.3005    0.0761
       53 C4     2pz        0.0000   -0.0306    0.3162   -0.0000   -0.0000    0.0000    0.0000   -0.2676    0.0000   -0.0000
       54 C4     *pz        0.0000   -0.0498    0.6066   -0.0000   -0.0000   -0.0000    0.0000   -0.7225    0.0000   -0.0000
       55 C4     *200       0.0021   -0.0000   -0.0000    0.0064    0.0007   -0.0026    0.0001   -0.0000   -0.0019    0.0006
       56 C4     *110      -0.0020    0.0000   -0.0000    0.0020   -0.0143   -0.0017    0.0098   -0.0000   -0.0307    0.0010
       57 C4     *101       0.0000   -0.0010   -0.0010   -0.0000   -0.0000    0.0000    0.0000    0.0055   -0.0000   -0.0000
       58 C4     *020       0.0061    0.0000    0.0000   -0.0128   -0.0009    0.0144   -0.0030   -0.0000    0.0085   -0.0154
       59 C4     *011       0.0000    0.0337   -0.0027   -0.0000   -0.0000   -0.0000   -0.0000    0.0001   -0.0000   -0.0000
       60 C4     *002      -0.0023    0.0000   -0.0000    0.0024    0.0000   -0.0063    0.0012    0.0000   -0.0020    0.0015
       61 H5     1s         0.0873    0.0000   -0.0000    0.0038    0.0019   -0.0307    0.0063    0.0000   -0.0358   -0.0341
       62 H5     *s         0.2126   -0.0000    0.0000    1.1348   -1.0792   -1.5851   -1.1975   -0.0000   -0.7228    0.5642
       63 H6     1s         0.0873   -0.0000    0.0000    0.0038    0.0019    0.0307   -0.0063    0.0000    0.0358   -0.0341
       64 H6     *s         0.2126    0.0000    0.0000    1.1348   -1.0792    1.5851    1.1975    0.0000    0.7228    0.5642
       65 C7     1s         0.0044    0.0000    0.0000    0.0500    0.0367    0.0460   -0.0682   -0.0000    0.0413   -0.0479
       66 C7     2s         0.0081   -0.0000   -0.0000   -0.0840   -0.0207   -0.1176    0.0937    0.0000   -0.0674   -0.0074
       67 C7     *s        -0.1329    0.0000   -0.0000   -0.6565   -1.0204    0.0148    1.1970   -0.0000   -0.8580    1.5265
       68 C7     2px        0.1537    0.0000   -0.0000   -0.1141   -0.0768   -0.0612    0.0132   -0.0000    0.0642   -0.0232
       69 C7     *px        0.0855   -0.0000    0.0000   -0.3375   -0.4142   -0.4291   -0.0821    0.0000    0.7967    0.4750
       70 C7     2py        0.0620   -0.0000   -0.0000    0.0624    0.1652    0.0817   -0.0853   -0.0000   -0.1670    0.0391
       71 C7     *py        0.0173    0.0000   -0.0000    0.4161    0.4909    1.3849   -0.8565   -0.0000   -0.8339    1.2408
       72 C7     2pz       -0.0000    0.2902   -0.1330    0.0000    0.0000    0.0000    0.0000   -0.2388    0.0000   -0.0000
       73 C7     *pz       -0.0000    0.4627   -0.2878    0.0000    0.0000    0.0000    0.0000   -0.6781    0.0000   -0.0000
       74 C7     *200      -0.0093    0.0000    0.0000   -0.0013    0.0004    0.0022   -0.0047    0.0000    0.0043    0.0087
       75 C7     *110      -0.0168    0.0000   -0.0000   -0.0004   -0.0068    0.0051   -0.0057    0.0000   -0.0053   -0.0200
       76 C7     *101       0.0000    0.0187    0.0230    0.0000   -0.0000   -0.0000   -0.0000   -0.0063   -0.0000    0.0000
       77 C7     *020       0.0112    0.0000   -0.0000    0.0051   -0.0006    0.0078    0.0030   -0.0000   -0.0060   -0.0053
       78 C7     *011       0.0000    0.0021    0.0226   -0.0000   -0.0000    0.0000   -0.0000    0.0192   -0.0000    0.0000
       79 C7     *002       0.0005   -0.0000    0.0000   -0.0008    0.0022   -0.0039   -0.0003    0.0000   -0.0012   -0.0034
       80 C8     1s         0.0044   -0.0000   -0.0000    0.0500    0.0367   -0.0460    0.0682    0.0000   -0.0413   -0.0479
       81 C8     2s         0.0081    0.0000    0.0000   -0.0840   -0.0207    0.1176   -0.0937    0.0000    0.0674   -0.0074
       82 C8     *s        -0.1329    0.0000    0.0000   -0.6565   -1.0204   -0.0148   -1.1970   -0.0000    0.8580    1.5265
       83 C8     2px       -0.1537   -0.0000    0.0000    0.1141    0.0768   -0.0612    0.0132    0.0000    0.0642    0.0232
       84 C8     *px       -0.0855   -0.0000    0.0000    0.3375    0.4142   -0.4291   -0.0821    0.0000    0.7967   -0.4750
       85 C8     2py        0.0620    0.0000   -0.0000    0.0624    0.1652   -0.0817    0.0853    0.0000    0.1670    0.0391
       86 C8     *py        0.0173   -0.0000    0.0000    0.4161    0.4909   -1.3849    0.8565    0.0000    0.8339    1.2408
       87 C8     2pz       -0.0000   -0.2902   -0.1330   -0.0000    0.0000    0.0000    0.0000    0.2388    0.0000    0.0000
       88 C8     *pz       -0.0000   -0.4627   -0.2878    0.0000   -0.0000    0.0000   -0.0000    0.6781   -0.0000    0.0000
       89 C8     *200      -0.0093    0.0000   -0.0000   -0.0013    0.0004   -0.0022    0.0047    0.0000   -0.0043    0.0087
       90 C8     *110       0.0168   -0.0000    0.0000    0.0004    0.0068    0.0051   -0.0057   -0.0000   -0.0053    0.0200
       91 C8     *101      -0.0000    0.0187   -0.0230    0.0000    0.0000    0.0000    0.0000   -0.0063    0.0000   -0.0000
       92 C8     *020       0.0112   -0.0000   -0.0000    0.0051   -0.0006   -0.0078   -0.0030    0.0000    0.0060   -0.0053
       93 C8     *011       0.0000   -0.0021    0.0226   -0.0000   -0.0000    0.0000    0.0000   -0.0192    0.0000   -0.0000
       94 C8     *002       0.0005    0.0000    0.0000   -0.0008    0.0022    0.0039    0.0003   -0.0000    0.0012   -0.0034
       95 H9     1s         0.0761   -0.0000    0.0000    0.0052    0.0064    0.0235    0.0050   -0.0000   -0.0056    0.0139
       96 H9     *s         0.1747   -0.0000    0.0000    0.9821    1.2380    1.4602   -1.2828   -0.0000   -0.8622    0.3336
       97 H10    1s         0.0761   -0.0000    0.0000    0.0052    0.0064   -0.0235   -0.0050    0.0000    0.0056    0.0139
       98 H10    *s         0.1747   -0.0000    0.0000    0.9821    1.2380   -1.4602    1.2828    0.0000    0.8622    0.3336
--


++    Molecular charges:
      ------------------

      Mulliken charges per centre and basis function type
      ---------------------------------------------------

                C1      C2      C3      C4      H5      H6      C7      C8      H9      H10   
      1s       1.9968  1.9968  1.9970  1.9970  0.5119  0.5119  1.9968  1.9968  0.5180  0.5180
      2s       0.6937  0.6937  0.6993  0.6993  0.0000  0.0000  0.6889  0.6889  0.0000  0.0000
      2px      0.5778  0.5778  0.5834  0.5834  0.0000  0.0000  0.6693  0.6693  0.0000  0.0000
      2pz      0.5565  0.5565  0.5204  0.5204  0.0000  0.0000  0.5329  0.5329  0.0000  0.0000
      2py      0.7912  0.7912  0.7857  0.7857  0.0000  0.0000  0.7618  0.7618  0.0000  0.0000
      *s       0.5282  0.5282  0.4269  0.4269  0.2325  0.2325  0.5128  0.5128  0.2413  0.2413
      *px      0.2860  0.2860  0.4383  0.4383  0.0000  0.0000  0.2481  0.2481  0.0000  0.0000
      *pz      0.4950  0.4950  0.3824  0.3824  0.0000  0.0000  0.4792  0.4792  0.0000  0.0000
      *py      0.3035  0.3035  0.0858  0.0858  0.0000  0.0000  0.3105  0.3105  0.0000  0.0000
      *200     0.0097  0.0097 -0.0106 -0.0106  0.0000  0.0000  0.0165  0.0165  0.0000  0.0000
      *110     0.0119  0.0119  0.0155  0.0155  0.0000  0.0000  0.0153  0.0153  0.0000  0.0000
      *101     0.0039  0.0039  0.0044  0.0044  0.0000  0.0000  0.0061  0.0061  0.0000  0.0000
      *020     0.0443  0.0443  0.0308  0.0308  0.0000  0.0000  0.0348  0.0348  0.0000  0.0000
      *011     0.0056  0.0056  0.0097  0.0097  0.0000  0.0000  0.0041  0.0041  0.0000  0.0000
      *002    -0.0190 -0.0190 -0.0156 -0.0156  0.0000  0.0000 -0.0191 -0.0191  0.0000  0.0000
      Total    6.2850  6.2850  5.9534  5.9534  0.7444  0.7444  6.2579  6.2579  0.7593  0.7593

      N-E     -0.2850 -0.2850  0.0466  0.0466  0.2556  0.2556 -0.2579 -0.2579  0.2407  0.2407

      Total electronic charge=   40.000000

      Total            charge=   -0.000000
--


++    Molecular properties:
      ---------------------

      Charge (e):
                      =   -0.0000
      Dipole Moment (Debye):
      Origin of the operator (Ang)=    0.0000    0.0000    0.0000
                   X=  8.3868E-06               Y=  1.2605E-01               Z=  3.1137E-14           Total=  1.2605E-01
      Quadrupole Moment (Debye*Ang):
      Origin of the operator (Ang)=    0.0000    0.0000    0.0000
                  XX= -3.8119E+01              XY= -2.0627E-05              XZ=  1.7712E-13              YY= -2.4501E+01
                  YZ=  1.2467E-13              ZZ= -3.8170E+01
      In traceless form (Debye*Ang)
                  XX= -6.7833E+00              XY= -3.0940E-05              XZ=  2.6568E-13              YY=  1.3644E+01
                  YZ=  1.8701E-13              ZZ= -6.8603E+00
--


      Input file to MOLDEN was generated!

 ###############################################################################
 ###############################################################################
 ###                                                                         ###
 ###                                                                         ###
 ###    WARNING: RunFile label nBas                                          ###
 ###    was used       60 times                                              ###
 ###                                                                         ###
 ###                                                                         ###
 ###############################################################################
 ###############################################################################
--- Stop Module: scf at Wed Jul 10 21:30:24 2024 /rc=_RC_ALL_IS_WELL_ ---
*** files: ts.scf.molden ts.ScfOrb xmldump
    saved to directory /home/kenya/molcas_test/exercise_1
--- Module scf spent 3 seconds ---

--- Start Module: rasscf at Wed Jul 10 21:30:24 2024 ---

()()()()()()()()()()()()()()()()()()()()()()()()()()()()()()()()()()()()()()()()()()()()()()()()()()

                                              &RASSCF

                                   only a single process is used
                       available to each process: 2.0 GB of memory, 1 thread
                                            pid: 712050
()()()()()()()()()()()()()()()()()()()()()()()()()()()()()()()()()()()()()()()()()()()()()()()()()()


      Header of the ONEINT file:
      --------------------------
      
      Integrals generated by Gateway/Seward, Wed Jul 10 21:30:19 2024


      OrdInt status: non-squared


      Cartesian coordinates in Angstrom:
      -----------------------------------------------------
      No.  Label        X            Y            Z        
      -----------------------------------------------------
       1   C1         0.79620437   1.18302262   0.00000000
       2   C2        -0.79620437   1.18302262   0.00000000
       3   C3         1.34362438   0.00990155   0.00000000
       4   C4        -1.34362438   0.00990155   0.00000000
       5   H5        -1.17731607   2.18271563   0.00000000
       6   H6         1.17731607   2.18271563   0.00000000
       7   C7         0.71537694  -1.19498676   0.00000000
       8   C8        -0.71537694  -1.19498676   0.00000000
       9   H9         1.18846301  -2.15793100   0.00000000
      10   H10       -1.18846301  -2.15793100   0.00000000
      -----------------------------------------------------
      Nuclear repulsion energy =  186.23618787

++    Wave function specifications:
      -----------------------------

      Number of closed shell electrons          28
      Number of electrons in active shells      12
      Max number of holes in RAS1 space          0
      Max nr of electrons in RAS3 space          0
      Number of inactive orbitals               14
      Number of active orbitals                 12
      Number of secondary orbitals              72
      Spin quantum number                      0.0
      State symmetry                             1
--

++    Orbital specifications:
      -----------------------

      Symmetry species                           1
                                                 a
      Frozen orbitals                            0
      Inactive orbitals                         14
      Active orbitals                           12
      RAS1 orbitals                              0
      RAS2 orbitals                             12
      RAS3 orbitals                              0
      Secondary orbitals                        72
      Deleted orbitals                           0
      Number of basis functions                 98
--

++    CI expansion specifications:
      ----------------------------

      Number of CSFs                        226512
      Number of determinants                427350
      Number of root(s) required                 1
      Root chosen for geometry opt.              1
      CI root used                               1
         
      highest root included in the CI            1
      max. size of the explicit Hamiltonian    200
--

++    Optimization specifications:
      ----------------------------

      RASSCF algorithm: Conventional
      Maximum number of macro iterations       200
      Maximum number of SX iterations          100
      Threshold for RASSCF energy            1.000E-08
      Threshold for max MO rotation          1.000E-01
      Threshold for max BLB element          1.000E-04
      Level shift parameter                  5.000E-01
      Make Quasi-Newton update
--

      Orbitals from runfile: scf orbitals
      The MO-coefficients are taken from scf orbitals on runfile

      Total molecular charge    0.00

      Molecular orbitals exchanged:
        In symmetry  1 :  14  15
        In symmetry  1 :  24  28
        In symmetry  1 :  25  29
        In symmetry  1 :  26  31


      ************************************************************************************************************************
      *                                                                                                                      *
      *                                            Wave function control section                                             *
      *                                                                                                                      *
      ************************************************************************************************************************


                                         RASSCF iterations: Energy and convergence statistics
                                         ----------------------------------------------------

      Iter CI   SX   CI       RASSCF       Energy    max ROT     max BLB   max BLB  Level Ln srch  Step   QN   Walltime
          iter iter root      energy       change     param      element    value   shift minimum  type update hh:mm:ss
 Nr of preliminary CI iterations:   6
        1   1   15    1  -229.44518374    0.00E+00  -3.41E-01*  21  42 1 -5.07E-02*  0.09   0.00    SX    NO    0:00:39
        2   5    9    1  -229.50382181   -5.86E-02*  1.09E-01*  20  68 1 -1.65E-02*  0.12   0.00    SX    NO    0:00:22
        3   3   10    1  -229.51433599   -1.05E-02*  6.40E-02    7  21 1 -9.53E-03*  0.12   0.00    SX    NO    0:00:17
        4   4   10    1  -229.51771275   -3.38E-03*  4.19E-02    7  21 1 -5.31E-03*  0.12   0.00    SX    NO    0:00:19
        5   4   10    1  -229.51898899   -1.28E-03*  4.68E-02    7  21 1 -3.25E-03*  0.13   2.46    LS   YES    0:00:20
        6   5   10    1  -229.51971808   -7.29E-04* -2.46E-02   10  25 1 -2.04E-03*  0.13   1.41    QN   YES    0:00:22
        7   4    9    1  -229.51988284   -1.65E-04* -9.57E-03   15  28 1 -1.05E-03*  0.13   1.33    QN   YES    0:00:21
        8   5    8    1  -229.51991551   -3.27E-05*  2.12E-03   15  28 1 -3.42E-04*  0.13   1.25    QN   YES    0:00:23
        9   3    7    1  -229.51991930   -3.79E-06*  3.82E-04    7  21 1  9.73E-05   0.13   1.10    QN   YES    0:00:19
       10   4    6    1  -229.51991949   -1.88E-07* -1.80E-04   13  32 1  4.03E-05   0.13   1.15    QN   YES    0:00:20
       11   2    5    1  -229.51991951   -2.23E-08*  6.19E-05   19  40 1 -8.05E-06   0.13   1.06    QN   YES    0:00:14
       12   1    5    1  -229.51991952   -3.02E-09   3.77E-05   10  25 1 -4.15E-06   0.13   1.33    QN   YES    0:00:12
      Convergence after 12 iterations
       13   2    5    1  -229.51991952   -8.59E-10   3.77E-05   10  25 1 -2.10E-06   0.13   1.33    QN   YES    0:00:16

      ************************************************************************************************************************
                                                      Wave function printout:
                       occupation of active orbitals, and spin coupling of open shells (u,d: Spin up or down)
      ************************************************************************************************************************

      Note: transformation to natural orbitals
      has been made, which may change the order of the CSFs.

      printout of CI-coefficients larger than  0.05 for root  1
      energy=    -229.519920
      conf/sym  111111111111     Coeff  Weight
             1  222222000000  -0.80934 0.65503
            38  222220200000   0.43472 0.18898
            83  222u2du0d000   0.12694 0.01611
           166  222202020000   0.11795 0.01391
           189  222ud20ud000  -0.08595 0.00739
           213  22u2d20u0d00  -0.08372 0.00701
           274  222022002000   0.08104 0.00657
           298  22ud2200ud00   0.07444 0.00554
           430  202222000020   0.06022 0.00363
           479  2222uudd0000   0.05739 0.00329
           556  222uu20dd000   0.08602 0.00740
          5604  222200220000  -0.06667 0.00444
          6132  222020202000  -0.06119 0.00374
         17029  222uu02dd000  -0.05918 0.00350

      Natural orbitals and occupation numbers for root  1
      sym 1:   1.977250   1.964233   1.957662   1.908589   1.898038   1.523768   0.482536   0.107699   0.090007   0.039536
               0.030545   0.020136

      ************************************************************************************************************************
      *                                                                                                                      *
      *                                                    Final results                                                     *
      *                                                                                                                      *
      ************************************************************************************************************************


++    Wave function specifications:
      -----------------------------

      Number of closed shell electrons          28
      Number of electrons in active shells      12
      Max number of holes in RAS1 space          0
      Max nr of electrons in RAS3 space          0
      Number of inactive orbitals               14
      Number of active orbitals                 12
      Number of secondary orbitals              72
      Spin quantum number                      0.0
      State symmetry                             1
--

++    Orbital specifications:
      -----------------------

      Symmetry species                           1
                                                 a
      Frozen orbitals                            0
      Inactive orbitals                         14
      Active orbitals                           12
      RAS1 orbitals                              0
      RAS2 orbitals                             12
      RAS3 orbitals                              0
      Secondary orbitals                        72
      Deleted orbitals                           0
      Number of basis functions                 98
--

++    CI expansion specifications:
      ----------------------------

      Number of CSFs                        226512
      Number of determinants                427350
      Number of root(s) required                 1
      CI root used                               1
      highest root included in the CI            1
      Root passed to geometry opt.               1
--

++    Final optimization conditions:
      ------------------------------

      Average CI energy                            -229.51991952
      RASSCF energy for state  1                   -229.51991952
      Super-CI energy                                -0.00000000
      RASSCF energy change                            0.00000000
      Max change in MO coefficients              -9.307E-05
      Max non-diagonal density matrix element     3.772E-05
      Maximum BLB matrix element                 -2.103E-06
      (orbital pair  10,  25 in symmetry   1)
      Norm of electronic gradient            7.224E-06
--


      Final state energy(ies):
      ------------------------

::    RASSCF root number  1 Total energy:   -229.51991952

++    Molecular orbitals:
      -------------------

      Pseudonatural active orbitals and approximate occupation numbers




      Molecular orbitals for symmetry species 1: a  


      Orbital                 1         2         3         4         5         6         7         8         9        10
      Energy           -11.2347  -11.2344  -11.2342  -11.2335  -11.2213  -11.2211   -1.1127   -1.0077   -0.9259   -0.8396
      Occ. No.           2.0000    2.0000    2.0000    2.0000    2.0000    2.0000    2.0000    2.0000    2.0000    2.0000

     1 C1     1s         0.6935   -0.1084    0.6999   -0.0538    0.0549   -0.0547   -0.0869    0.0856    0.0911    0.0870
     2 C1     2s         0.0192   -0.0031    0.0196   -0.0015    0.0019   -0.0017    0.1619   -0.1671   -0.1720   -0.1723
     3 C1     *s        -0.0063    0.0012   -0.0133   -0.0010   -0.0088    0.0047    0.1034   -0.1100   -0.1481   -0.1602
     4 C1     2px        0.0006   -0.0000    0.0001   -0.0000    0.0002   -0.0008    0.0416   -0.0744   -0.0729   -0.0922
     5 C1     *px       -0.0002    0.0001    0.0018    0.0004    0.0008   -0.0002    0.0201   -0.0141   -0.0419   -0.0374
     6 C1     2py       -0.0001    0.0000   -0.0001   -0.0000   -0.0002    0.0002   -0.0780    0.0882   -0.0007    0.0123
     7 C1     *py        0.0004   -0.0003    0.0025    0.0009    0.0041   -0.0023   -0.0080   -0.0154   -0.0112   -0.0245
     8 C1     2pz        0.0000    0.0000   -0.0000   -0.0000    0.0000   -0.0000   -0.0000    0.0000    0.0000    0.0000
     9 C1     *pz       -0.0000    0.0000   -0.0000    0.0000   -0.0000   -0.0000   -0.0000   -0.0000   -0.0000   -0.0000
    10 C1     *200      -0.0012    0.0002   -0.0007    0.0001    0.0002   -0.0000    0.0012    0.0048   -0.0024    0.0028
    11 C1     *110      -0.0001    0.0000   -0.0002    0.0000   -0.0001    0.0001   -0.0027    0.0055    0.0011    0.0021
    12 C1     *101      -0.0000    0.0000   -0.0000   -0.0000    0.0000   -0.0000   -0.0000   -0.0000    0.0000   -0.0000
    13 C1     *020      -0.0006    0.0002   -0.0005    0.0001    0.0001   -0.0000    0.0068   -0.0087   -0.0064   -0.0071
    14 C1     *011      -0.0000    0.0000    0.0000    0.0000   -0.0000    0.0000    0.0000    0.0000    0.0000    0.0000
    15 C1     *002      -0.0011    0.0001   -0.0009    0.0001    0.0000    0.0000   -0.0045    0.0035    0.0044    0.0035
    16 C2     1s         0.6935   -0.1084   -0.6999    0.0538   -0.0549   -0.0547   -0.0869   -0.0856    0.0911   -0.0870
    17 C2     2s         0.0192   -0.0031   -0.0196    0.0015   -0.0019   -0.0017    0.1619    0.1671   -0.1720    0.1723
    18 C2     *s        -0.0063    0.0012    0.0133    0.0010    0.0088    0.0047    0.1034    0.1100   -0.1481    0.1602
    19 C2     2px       -0.0006    0.0000    0.0001   -0.0000    0.0002    0.0008   -0.0416   -0.0744    0.0729   -0.0922
    20 C2     *px        0.0002   -0.0001    0.0018    0.0004    0.0008    0.0002   -0.0201   -0.0141    0.0419   -0.0374
    21 C2     2py       -0.0001    0.0000    0.0001    0.0000    0.0002    0.0002   -0.0780   -0.0882   -0.0007   -0.0123
    22 C2     *py        0.0004   -0.0003   -0.0025   -0.0009   -0.0041   -0.0023   -0.0080    0.0154   -0.0112    0.0245
    23 C2     2pz        0.0000    0.0000   -0.0000    0.0000    0.0000   -0.0000   -0.0000   -0.0000    0.0000   -0.0000
    24 C2     *pz       -0.0000   -0.0000    0.0000   -0.0000    0.0000    0.0000    0.0000    0.0000    0.0000    0.0000
    25 C2     *200      -0.0012    0.0002    0.0007   -0.0001   -0.0002   -0.0000    0.0012   -0.0048   -0.0024   -0.0028
    26 C2     *110       0.0001   -0.0000   -0.0002    0.0000   -0.0001   -0.0001    0.0027    0.0055   -0.0011    0.0021
    27 C2     *101       0.0000    0.0000    0.0000   -0.0000   -0.0000    0.0000   -0.0000   -0.0000    0.0000   -0.0000
    28 C2     *020      -0.0006    0.0002    0.0005   -0.0001   -0.0001   -0.0000    0.0068    0.0087   -0.0064    0.0071
    29 C2     *011      -0.0000   -0.0000    0.0000   -0.0000    0.0000    0.0000   -0.0000    0.0000    0.0000   -0.0000
    30 C2     *002      -0.0011    0.0001    0.0009   -0.0001   -0.0000    0.0000   -0.0045   -0.0035    0.0044   -0.0035
    31 C3     1s         0.0587    0.0271    0.0569    0.0351   -0.7009    0.7012   -0.1180    0.1261   -0.0043   -0.0062
    32 C3     2s         0.0014    0.0006    0.0013    0.0008   -0.0201    0.0196    0.2256   -0.2412    0.0094    0.0138
    33 C3     *s         0.0025    0.0017    0.0062    0.0055    0.0159   -0.0115    0.1421   -0.1916    0.0095    0.0090
    34 C3     2px        0.0002    0.0000    0.0001    0.0001    0.0012   -0.0011   -0.0654    0.0852   -0.0089   -0.0130
    35 C3     *px       -0.0004   -0.0004   -0.0018   -0.0017   -0.0041    0.0026   -0.0091    0.0364   -0.0043   -0.0063
    36 C3     2py       -0.0001    0.0002   -0.0001    0.0001   -0.0000   -0.0000    0.0134   -0.0243   -0.1999   -0.2224
    37 C3     *py        0.0010   -0.0012    0.0014   -0.0012    0.0004   -0.0003   -0.0037   -0.0021   -0.0223   -0.0264
[...]
    34 C3     2px        0.0782    0.0722   -0.0044   -0.0175    0.0519    0.0785   -0.0000    0.0000   -0.0000    0.3882
    35 C3     *px        0.0079    0.0033   -0.0031   -0.0067    0.0160    0.0292   -0.0000    0.0000   -0.0000    0.3492
    36 C3     2py       -0.0066   -0.0258   -0.2302   -0.2431   -0.0587    0.0628    0.0000    0.0000   -0.0000   -0.0125
    37 C3     *py        0.0031   -0.0048   -0.0432   -0.0675   -0.0202    0.0122    0.0000    0.0000   -0.0000   -0.0192
    38 C3     2pz        0.0000   -0.0000   -0.0000   -0.0000    0.0000    0.0000    0.2247   -0.3219   -0.0428    0.0000
    39 C3     *pz       -0.0000   -0.0000    0.0000   -0.0000   -0.0000    0.0000    0.1188   -0.2184   -0.0324   -0.0000
    40 C3     *200      -0.0036   -0.0023    0.0007    0.0007   -0.0054   -0.0053    0.0000   -0.0000    0.0000   -0.0023
    41 C3     *110       0.0012    0.0033    0.0190    0.0177   -0.0052    0.0081    0.0000   -0.0000   -0.0000    0.0008
    42 C3     *101      -0.0000    0.0000    0.0000   -0.0000    0.0000   -0.0000   -0.0136    0.0117    0.0005   -0.0000
    43 C3     *020       0.0012    0.0017   -0.0002   -0.0003    0.0042    0.0048    0.0000    0.0000   -0.0000   -0.0026
    44 C3     *011      -0.0000    0.0000    0.0000    0.0000    0.0000    0.0000    0.0010   -0.0041   -0.0226   -0.0000
    45 C3     *002       0.0023    0.0019    0.0001   -0.0002   -0.0001   -0.0000   -0.0000    0.0000   -0.0000    0.0016
    46 C4     1s         0.0452   -0.0552    0.0011    0.0093   -0.0382   -0.0396    0.0000    0.0000    0.0000    0.0554
    47 C4     2s        -0.0889    0.1118   -0.0011   -0.0203    0.0833    0.0854   -0.0000   -0.0000   -0.0000   -0.1147
    48 C4     *s        -0.0352    0.0519    0.0127   -0.0215    0.0902    0.0971   -0.0000    0.0000    0.0000   -0.0751
    49 C4     2px       -0.0782    0.0722    0.0044   -0.0175   -0.0519   -0.0785   -0.0000   -0.0000    0.0000    0.3882
    50 C4     *px       -0.0079    0.0033    0.0031   -0.0067   -0.0160   -0.0292   -0.0000    0.0000   -0.0000    0.3492
    51 C4     2py       -0.0066    0.0258   -0.2302    0.2431   -0.0587    0.0628    0.0000    0.0000    0.0000    0.0125
    52 C4     *py        0.0031    0.0048   -0.0432    0.0675   -0.0202    0.0122   -0.0000   -0.0000    0.0000    0.0192
    53 C4     2pz       -0.0000   -0.0000    0.0000   -0.0000   -0.0000    0.0000    0.2247    0.3219   -0.0428   -0.0000
    54 C4     *pz       -0.0000   -0.0000    0.0000   -0.0000    0.0000   -0.0000    0.1188    0.2184   -0.0324   -0.0000
    55 C4     *200      -0.0036    0.0023    0.0007   -0.0007   -0.0054   -0.0053   -0.0000    0.0000    0.0000    0.0023
    56 C4     *110      -0.0012    0.0033   -0.0190    0.0177    0.0052   -0.0081   -0.0000   -0.0000   -0.0000    0.0008
    57 C4     *101      -0.0000    0.0000    0.0000   -0.0000   -0.0000    0.0000    0.0136    0.0117   -0.0005   -0.0000
    58 C4     *020       0.0012   -0.0017   -0.0002    0.0003    0.0042    0.0048   -0.0000    0.0000   -0.0000    0.0026
    59 C4     *011       0.0000   -0.0000   -0.0000    0.0000   -0.0000    0.0000    0.0010    0.0041   -0.0226    0.0000
    60 C4     *002       0.0023   -0.0019    0.0001    0.0002   -0.0001   -0.0000   -0.0000   -0.0000   -0.0000   -0.0016
    61 H5     1s         0.1440   -0.1771    0.1197   -0.1240   -0.0054    0.0465   -0.0000   -0.0000    0.0000    0.0213
    62 H5     *s         0.0750   -0.1052    0.0855   -0.1018   -0.0028    0.0600    0.0000   -0.0000    0.0000   -0.0136
    63 H6     1s         0.1440    0.1771    0.1197    0.1240   -0.0054    0.0465    0.0000   -0.0000    0.0000   -0.0213
    64 H6     *s         0.0750    0.1052    0.0855    0.1018   -0.0028    0.0600   -0.0000    0.0000   -0.0000    0.0136
    65 C7     1s        -0.0391   -0.0376   -0.0091    0.0028    0.0835   -0.0130    0.0000   -0.0000   -0.0000    0.0316
    66 C7     2s         0.0750    0.0751    0.0201   -0.0012   -0.1703    0.0270    0.0000   -0.0000   -0.0000   -0.0803
    67 C7     *s         0.0812    0.0698    0.0255   -0.0176   -0.1147    0.0200   -0.0000    0.0000   -0.0000   -0.0438
    68 C7     2px        0.0419    0.0526    0.0059    0.0026    0.3825   -0.0549    0.0000    0.0000    0.0000    0.0221
    69 C7     *px        0.0317    0.0354   -0.0002   -0.0010    0.1398   -0.0277    0.0000    0.0000   -0.0000    0.0207
    70 C7     2py       -0.1896   -0.1638    0.2458    0.2601   -0.0015    0.0136    0.0000    0.0000   -0.0000   -0.0467
    71 C7     *py       -0.0755   -0.0991    0.1028    0.1364   -0.0090    0.0074   -0.0000    0.0000   -0.0000    0.0731
    72 C7     2pz        0.0000    0.0000   -0.0000   -0.0000    0.0000    0.0000    0.2248   -0.1451    0.2950   -0.0000
    73 C7     *pz        0.0000    0.0000   -0.0000   -0.0000    0.0000    0.0000    0.1392   -0.1060    0.2363    0.0000
    74 C7     *200       0.0021    0.0001    0.0008    0.0001   -0.0100    0.0021   -0.0000   -0.0000   -0.0000    0.0083
    75 C7     *110      -0.0062   -0.0157    0.0083    0.0242    0.0044    0.0019   -0.0000    0.0000    0.0000    0.0054
    76 C7     *101       0.0000    0.0000   -0.0000    0.0000   -0.0000   -0.0000   -0.0063   -0.0110   -0.0144   -0.0000
    77 C7     *020       0.0030    0.0032   -0.0049   -0.0056    0.0082   -0.0024    0.0000   -0.0000   -0.0000   -0.0075
    78 C7     *011      -0.0000    0.0000    0.0000    0.0000   -0.0000   -0.0000    0.0102   -0.0125   -0.0006    0.0000
    79 C7     *002      -0.0016   -0.0015   -0.0001    0.0005    0.0031    0.0000   -0.0000    0.0000   -0.0000   -0.0003
    80 C8     1s        -0.0391    0.0376   -0.0091   -0.0028    0.0835   -0.0130    0.0000   -0.0000   -0.0000   -0.0316
    81 C8     2s         0.0750   -0.0751    0.0201    0.0012   -0.1703    0.0270   -0.0000   -0.0000   -0.0000    0.0803
    82 C8     *s         0.0812   -0.0698    0.0255    0.0176   -0.1147    0.0200    0.0000    0.0000    0.0000    0.0438
    83 C8     2px       -0.0419    0.0526   -0.0059    0.0026   -0.3825    0.0549   -0.0000   -0.0000   -0.0000    0.0221
    84 C8     *px       -0.0317    0.0354    0.0002   -0.0010   -0.1398    0.0277    0.0000    0.0000   -0.0000    0.0207
    85 C8     2py       -0.1896    0.1638    0.2458   -0.2601   -0.0015    0.0136    0.0000    0.0000    0.0000    0.0467
    86 C8     *py       -0.0755    0.0991    0.1028   -0.1364   -0.0090    0.0074    0.0000   -0.0000   -0.0000   -0.0731
    87 C8     2pz       -0.0000    0.0000    0.0000   -0.0000    0.0000    0.0000    0.2248    0.1451    0.2950    0.0000
    88 C8     *pz        0.0000   -0.0000   -0.0000    0.0000   -0.0000    0.0000    0.1392    0.1060    0.2363   -0.0000
    89 C8     *200       0.0021   -0.0001    0.0008   -0.0001   -0.0100    0.0021   -0.0000   -0.0000   -0.0000   -0.0083
    90 C8     *110       0.0062   -0.0157   -0.0083    0.0242   -0.0044   -0.0019    0.0000   -0.0000    0.0000    0.0054
    91 C8     *101      -0.0000    0.0000    0.0000   -0.0000    0.0000    0.0000    0.0063   -0.0110    0.0144   -0.0000
    92 C8     *020       0.0030   -0.0032   -0.0049    0.0056    0.0082   -0.0024    0.0000   -0.0000    0.0000    0.0075
    93 C8     *011      -0.0000    0.0000    0.0000   -0.0000   -0.0000   -0.0000    0.0102    0.0125   -0.0006   -0.0000
    94 C8     *002      -0.0016    0.0015   -0.0001   -0.0005    0.0031    0.0000   -0.0000   -0.0000   -0.0000    0.0003
    95 H9     1s         0.1344    0.1379   -0.1235   -0.1635    0.0454   -0.0184    0.0000   -0.0000    0.0000   -0.0208
    96 H9     *s         0.0690    0.0765   -0.0869   -0.1283    0.0602   -0.0223   -0.0000    0.0000   -0.0000    0.0109
    97 H10    1s         0.1344   -0.1379   -0.1235    0.1635    0.0454   -0.0184   -0.0000   -0.0000    0.0000    0.0208
    98 H10    *s         0.0690   -0.0765   -0.0869    0.1283    0.0602   -0.0223    0.0000   -0.0000   -0.0000   -0.0109


      Orbital                21        22        23        24        25        26
      Energy            -0.0000    0.0000   -0.0000   -0.0000    0.0000   -0.0000
      Occ. No.           0.4825    0.1077    0.0900    0.0395    0.0305    0.0201

     1 C1     1s        -0.0013    0.0000    0.0000    0.0000   -0.0959    0.0028
     2 C1     2s         0.0032    0.0000   -0.0000   -0.0000    0.3782   -0.0269
     3 C1     *s        -0.0441   -0.0000   -0.0000   -0.0000    0.5439   -0.1339
     4 C1     2px        0.1770   -0.0000    0.0000    0.0000   -0.6777    0.1020
     5 C1     *px        0.1355   -0.0000    0.0000   -0.0000   -0.4005    0.0847
     6 C1     2py       -0.0398    0.0000    0.0000   -0.0000   -0.0169   -0.0254
     7 C1     *py        0.0356   -0.0000    0.0000    0.0000   -0.0490    0.0481
     8 C1     2pz        0.0000   -0.3951   -0.2746   -0.3786   -0.0000   -0.0000
     9 C1     *pz       -0.0000   -0.2377   -0.2053   -0.2014    0.0000    0.0000
    10 C1     *200      -0.0104    0.0000   -0.0000   -0.0000    0.0025   -0.0036
    11 C1     *110       0.0086    0.0000    0.0000   -0.0000    0.0137   -0.0000
    12 C1     *101       0.0000   -0.0005    0.0312    0.0167   -0.0000   -0.0000
    13 C1     *020       0.0118    0.0000    0.0000   -0.0000   -0.0239    0.0046
    14 C1     *011      -0.0000    0.0079   -0.0121   -0.0026   -0.0000    0.0000
    15 C1     *002      -0.0006   -0.0000    0.0000   -0.0000   -0.0043    0.0012
    16 C2     1s        -0.0013   -0.0000    0.0000   -0.0000    0.0959   -0.0028
    17 C2     2s         0.0032    0.0000   -0.0000    0.0000   -0.3782    0.0269
    18 C2     *s        -0.0441   -0.0000   -0.0000    0.0000   -0.5439    0.1339
    19 C2     2px       -0.1770    0.0000    0.0000    0.0000   -0.6777    0.1020
    20 C2     *px       -0.1355   -0.0000    0.0000    0.0000   -0.4005    0.0847
    21 C2     2py       -0.0398    0.0000   -0.0000   -0.0000    0.0169    0.0254
    22 C2     *py        0.0356   -0.0000   -0.0000    0.0000    0.0490   -0.0481
    23 C2     2pz       -0.0000    0.3951   -0.2746    0.3786    0.0000   -0.0000
    24 C2     *pz        0.0000    0.2377   -0.2053    0.2014   -0.0000    0.0000
    25 C2     *200      -0.0104    0.0000    0.0000    0.0000   -0.0025    0.0036
    26 C2     *110      -0.0086   -0.0000    0.0000    0.0000    0.0137   -0.0000
    27 C2     *101       0.0000   -0.0005   -0.0312    0.0167   -0.0000    0.0000
    28 C2     *020       0.0118    0.0000    0.0000   -0.0000    0.0239   -0.0046
    29 C2     *011       0.0000   -0.0079   -0.0121    0.0026   -0.0000   -0.0000
    30 C2     *002      -0.0006   -0.0000    0.0000   -0.0000    0.0043   -0.0012
    31 C3     1s         0.0470    0.0000    0.0000    0.0000   -0.0047   -0.0015
    32 C3     2s        -0.1111    0.0000   -0.0000   -0.0000    0.0484   -0.0326
    33 C3     *s        -0.1807   -0.0000    0.0000    0.0000   -0.0184    0.1367
    34 C3     2px       -0.4177   -0.0000    0.0000   -0.0000    0.1515   -0.1399
    35 C3     *px       -0.3224    0.0000   -0.0000   -0.0000    0.1076   -0.1513
    36 C3     2py        0.0232   -0.0000   -0.0000    0.0000   -0.0401   -0.0262
    37 C3     *py        0.0098    0.0000    0.0000   -0.0000   -0.0135   -0.0068
    38 C3     2pz        0.0000    0.0623    0.4591    0.3893   -0.0000   -0.0000
    39 C3     *pz       -0.0000    0.0386    0.3455    0.2857    0.0000    0.0000
    40 C3     *200      -0.0105    0.0000    0.0000   -0.0000    0.0142   -0.0132
    41 C3     *110       0.0019   -0.0000   -0.0000    0.0000   -0.0180   -0.0103
    42 C3     *101      -0.0000    0.0017    0.0151    0.0193    0.0000    0.0000
    43 C3     *020       0.0115    0.0000    0.0000    0.0000   -0.0171    0.0155
    44 C3     *011       0.0000   -0.0302   -0.0003    0.0028   -0.0000   -0.0000
    45 C3     *002       0.0006    0.0000    0.0000    0.0000   -0.0008   -0.0006
    46 C4     1s         0.0470   -0.0000   -0.0000    0.0000    0.0047    0.0015
    47 C4     2s        -0.1111    0.0000    0.0000   -0.0000   -0.0484    0.0326
    48 C4     *s        -0.1807   -0.0000   -0.0000    0.0000    0.0184   -0.1367
    49 C4     2px        0.4177   -0.0000    0.0000   -0.0000    0.1515   -0.1399
    50 C4     *px        0.3224    0.0000   -0.0000    0.0000    0.1076   -0.1513
    51 C4     2py        0.0232   -0.0000    0.0000    0.0000    0.0401    0.0262
    52 C4     *py        0.0098    0.0000    0.0000    0.0000    0.0135    0.0068
    53 C4     2pz       -0.0000   -0.0623    0.4591   -0.3893    0.0000    0.0000
    54 C4     *pz        0.0000   -0.0386    0.3455   -0.2857   -0.0000   -0.0000
    55 C4     *200      -0.0105    0.0000    0.0000   -0.0000   -0.0142    0.0132
    56 C4     *110      -0.0019    0.0000    0.0000   -0.0000   -0.0180   -0.0103
    57 C4     *101      -0.0000    0.0017   -0.0151    0.0193   -0.0000    0.0000
    58 C4     *020       0.0115   -0.0000    0.0000   -0.0000    0.0171   -0.0155
    59 C4     *011      -0.0000    0.0302   -0.0003   -0.0028   -0.0000   -0.0000
    60 C4     *002       0.0006    0.0000    0.0000   -0.0000    0.0008    0.0006
    61 H5     1s         0.0568    0.0000    0.0000   -0.0000    0.0223   -0.0002
    62 H5     *s         0.0525    0.0000    0.0000   -0.0000    0.0056    0.0186
    63 H6     1s         0.0568    0.0000    0.0000   -0.0000   -0.0223    0.0002
    64 H6     *s         0.0525    0.0000   -0.0000   -0.0000   -0.0056   -0.0186
    65 C7     1s        -0.0028    0.0000    0.0000   -0.0000    0.0284    0.1090
    66 C7     2s         0.0062    0.0000   -0.0000   -0.0000   -0.0984   -0.5198
    67 C7     *s        -0.0148   -0.0000   -0.0000    0.0000   -0.0696   -0.7056
    68 C7     2px        0.1445   -0.0000   -0.0000   -0.0000    0.0788    0.7649
    69 C7     *px        0.1057    0.0000    0.0000   -0.0000    0.0072    0.3951
    70 C7     2py        0.0437   -0.0000   -0.0000    0.0000   -0.0402    0.0009
    71 C7     *py       -0.0228    0.0000    0.0000   -0.0000   -0.0117   -0.0979
    72 C7     2pz        0.0000    0.4102   -0.1920   -0.4265   -0.0000   -0.0000
    73 C7     *pz       -0.0000    0.2416   -0.1683   -0.2278   -0.0000    0.0000
    74 C7     *200      -0.0076    0.0000    0.0000   -0.0000    0.0039   -0.0014
    75 C7     *110      -0.0083   -0.0000    0.0000    0.0000    0.0021    0.0113
    76 C7     *101       0.0000    0.0025    0.0275    0.0179    0.0000   -0.0000
    77 C7     *020       0.0103    0.0000    0.0000   -0.0000    0.0041    0.0400
    78 C7     *011       0.0000    0.0095    0.0124    0.0028   -0.0000   -0.0000
    79 C7     *002      -0.0004   -0.0000    0.0000    0.0000    0.0007    0.0085
    80 C8     1s        -0.0028   -0.0000    0.0000    0.0000   -0.0284   -0.1090
    81 C8     2s         0.0062    0.0000    0.0000   -0.0000    0.0984    0.5198
    82 C8     *s        -0.0148   -0.0000    0.0000    0.0000    0.0696    0.7056
    83 C8     2px       -0.1445    0.0000   -0.0000   -0.0000    0.0788    0.7649
    84 C8     *px       -0.1057   -0.0000    0.0000    0.0000    0.0072    0.3951
    85 C8     2py        0.0437   -0.0000   -0.0000    0.0000    0.0402   -0.0009
    86 C8     *py       -0.0228    0.0000    0.0000   -0.0000    0.0117    0.0979
    87 C8     2pz       -0.0000   -0.4102   -0.1920    0.4265    0.0000    0.0000
    88 C8     *pz        0.0000   -0.2416   -0.1683    0.2278   -0.0000   -0.0000
    89 C8     *200      -0.0076    0.0000    0.0000   -0.0000   -0.0039    0.0014
    90 C8     *110       0.0083   -0.0000   -0.0000   -0.0000    0.0021    0.0113
    91 C8     *101       0.0000    0.0025   -0.0275    0.0179    0.0000   -0.0000
    92 C8     *020       0.0103    0.0000    0.0000   -0.0000   -0.0041   -0.0400
    93 C8     *011      -0.0000   -0.0095    0.0124   -0.0028    0.0000    0.0000
    94 C8     *002      -0.0004    0.0000    0.0000   -0.0000   -0.0007   -0.0085
    95 H9     1s         0.0493    0.0000    0.0000   -0.0000    0.0087    0.0247
    96 H9     *s         0.0433   -0.0000    0.0000   -0.0000    0.0162   -0.0067
    97 H10    1s         0.0493    0.0000    0.0000   -0.0000   -0.0087   -0.0247
    98 H10    *s         0.0433   -0.0000    0.0000    0.0000   -0.0162    0.0067
--

      Von Neumann Entropy (Root   1) =  1.70113


      Mulliken population analysis for root number:  1
      -----------------------------------------------


++    Molecular charges:
      ------------------

      Mulliken charges per centre and basis function type
      ---------------------------------------------------

                C1      C2      C3      C4      H5      H6      C7      C8      H9      H10   
      1s       1.9966  1.9966  1.9968  1.9968  0.5205  0.5205  1.9966  1.9966  0.5239  0.5239
      2s       0.6779  0.6779  0.6895  0.6895  0.0000  0.0000  0.6788  0.6788  0.0000  0.0000
      2px      0.6385  0.6385  0.6037  0.6037  0.0000  0.0000  0.7053  0.7053  0.0000  0.0000
      2pz      0.5708  0.5708  0.5571  0.5571  0.0000  0.0000  0.5597  0.5597  0.0000  0.0000
      2py      0.7737  0.7737  0.7835  0.7835  0.0000  0.0000  0.7480  0.7480  0.0000  0.0000
      *s       0.5271  0.5271  0.4746  0.4746  0.2557  0.2557  0.5105  0.5105  0.2593  0.2593
      *px      0.2721  0.2721  0.3541  0.3541  0.0000  0.0000  0.2332  0.2332  0.0000  0.0000
      *pz      0.4517  0.4517  0.3848  0.3848  0.0000  0.0000  0.4454  0.4454  0.0000  0.0000
      *py      0.2834  0.2834  0.0797  0.0797  0.0000  0.0000  0.2979  0.2979  0.0000  0.0000
      *200     0.0111  0.0111 -0.0043 -0.0043  0.0000  0.0000  0.0156  0.0156  0.0000  0.0000
      *110     0.0121  0.0121  0.0153  0.0153  0.0000  0.0000  0.0153  0.0153  0.0000  0.0000
      *101     0.0036  0.0036  0.0036  0.0036  0.0000  0.0000  0.0056  0.0056  0.0000  0.0000
      *020     0.0422  0.0422  0.0294  0.0294  0.0000  0.0000  0.0336  0.0336  0.0000  0.0000
      *011     0.0052  0.0052  0.0093  0.0093  0.0000  0.0000  0.0040  0.0040  0.0000  0.0000
      *002    -0.0181 -0.0181 -0.0155 -0.0155  0.0000  0.0000 -0.0183 -0.0183  0.0000  0.0000
      Total    6.2480  6.2480  5.9617  5.9617  0.7762  0.7762  6.2310  6.2310  0.7832  0.7832

      N-E     -0.2480 -0.2480  0.0383  0.0383  0.2238  0.2238 -0.2310 -0.2310  0.2168  0.2168

      Total electronic charge=   40.000000

      Total            charge=   -0.000000
--



      Expectation values of various properties for root number:  1
      -----------------------------------------------------------


++    Molecular properties:
      ---------------------

      Charge (e):
                      =   -0.0000
      Dipole Moment (Debye):
      Origin of the operator (Ang)=    0.0000    0.0000    0.0000
                   X= -3.4698E-10               Y=  7.7521E-02               Z=  5.4940E-14           Total=  7.7521E-02
      Quadrupole Moment (Debye*Ang):
      Origin of the operator (Ang)=    0.0000    0.0000    0.0000
                  XX= -3.6132E+01              XY= -1.1352E-10              XZ=  2.2924E-13              YY= -2.6549E+01
                  YZ=  9.7721E-14              ZZ= -3.7302E+01
      In traceless form (Debye*Ang)
                  XX= -4.2067E+00              XY= -1.7028E-10              XZ=  3.4387E-13              YY=  1.0168E+01
                  YZ=  1.4658E-13              ZZ= -5.9610E+00
--


      Input file to MOLDEN was generated!

      Average orbitals are written to the RASORB file
      Natural orbitals for root   1 are written to the RASORB.1 file
      Spin density orbitals for root   1 are written to the SPDORB.1 file

--- Stop Module: rasscf at Wed Jul 10 21:35:08 2024 /rc=_RC_ALL_IS_WELL_ ---
*** files: ts.rasscf.molden ts.RasOrb.1 ts.RasOrb ts.SpdOrb.1 xmldump
    saved to directory /home/kenya/molcas_test/exercise_1
--- Module rasscf spent 4 minutes 43 seconds ---

.##################.
.# Happy landing! #.
.##################.

    Timing: Wall=289.37 User=286.53 System=2.25
