   This run of MOLCAS is using the pymolcas driver

                             OPE
                             OPE          NMOL  CASOP  ENMOLC A   SO
                 OPE        NMOLC        AS  OP EN  MO LC     AS  OP
                OPENM       OL CA        SO  PE NM  OL CA     SOP EN
                OP EN      MO   LC       AS  OP ENMOL  CASO   PENMOL
                OP  EN     MO   LC       AS  OP EN     MO     LC ASO
               OP   E  NMOL  C  AS       OP  EN MO     LC     AS  OP
               OP  E   NMO   LC AS        OPEN  MO     LCASOP EN   M
               O  PEN   MO  LCA  SO
            OPE   NMO   L   CAS    OP
        OPENMOL  CASOP     ENMOL   CASOPE
     OPENMOLCA   SOPENMOLCASOPEN   MOLCASOPE
    OPENMOLCAS   OP           EN   MOL    CAS
    OPENMOLCAS       OP  ENM        O     LCA
    OPENMOLCAS    OPEN  MOLCASO     P  E  NMO
    OPENMOLCAS     OP               E  N  MOL
    OPENMOLCA   SO           PENM   O  L  CAS    OPEN    MO    LCAS
    OPENMOLCA   SOP           ENM   O  L  CAS   OP  EN  MOLC  AS   O
    OPENMOLCA   SOPE           NM      O  LCA   S      OP  EN MO
    OPENMOLC                AS         O  PEN   M      OL  CA  SOPE
    OPENMO        LCASOPE  NMOL        C  ASO   P      ENMOLC     AS
    OPE     NMO      LCA  SO     P     E   NM   OL  CA SO  PE N   MO
          OPENMOLCA            SOPE   NMO        LCAS  O    P  ENMO
     OPENMOLCASOPENMOLCASOPENMOLCASOPENMOLCA
        OPENMOLCASOPENMOLCASOPENMOLCASOPE
            OPENMOLCASOPENMOLCASOPENM
               OPENMOLCASOPENMOLCA        version: 24.02
                   OPENMOLCASO
                       OPE                tag: 428-g03afa2e9a

 OpenMolcas is free software; you can redistribute it and/or modify it
 under the terms of the GNU Lesser General Public License version 2.1.
 OpenMolcas is distributed in the hope that it will be useful, but it
 is provided "as is" and without any express or implied warranties.
 For more details see the full text of the license in the file
 LICENSE or in <http://www.gnu.org/licenses/>.

                 Copyright (C) The OpenMolcas Authors
           For the author list and the recommended citation,
                   consult the file CONTRIBUTORS.md

           *************************************************
           * pymolcas version py2.28                       *
           *   build c4a6d18ded8cb6cad61d2372a9abd97c      *
           *   (after the EMIL interpreter by V. Veryazov) *
           *************************************************

configuration info
------------------
Host name: DESKTOP-ET1S6F4 (Linux)
C Compiler ID: GNU
C flags: -std=gnu99 -fopenmp
Fortran Compiler ID: GNU
Fortran flags: -fno-aggressive-loop-optimizations -cpp -fdefault-integer-8 -fopenmp
Definitions: _WARNING_WORKAROUND_;_MOLCAS_;_I8_;_LINUX_
Parallel: OFF (GA=OFF)


   ----------------------------------------------------------------------
  |
  |           Project: ts
  |    Submitted from: /home/kenya/molcas_test/exercise_1
  |      Scratch area: /tmp/ts
  |   Save outputs to: /home/kenya/molcas_test/exercise_1
  |            Molcas: /home/kenya/OpenMolcas/builds/gnu_dev_omp
  |
  | Scratch area is NOT empty
  |
  |    MOLCAS_DRIVER = /home/kenya/OpenMolcas/builds/gnu_dev_omp/pymolcas
  |    MOLCAS_NPROCS = 1
  |    MOLCAS_SOURCE = /home/kenya/OpenMolcas
  | MOLCAS_STRUCTURE = 0
  |
   ----------------------------------------------------------------------

++ ---------   Input file   ---------

&GATEWAY
Coord = ts.Opt.xyz
  Basis = 6-31G*
  Group = C1
  NoCD
Constraints
    a = bond c1 c2
  Values
    a = 1.9 angstrom
  End of Constraints

>>> COPY $CurrDir/ts.RasOrb INPORB

>>> DO WHILE

  &SEWARD

  &RASSCF
  　LUMORB
    Inactive = 14
    RAS2   = 12
    nActEl = 12 0 0

  &ALASKA

  &SLAPAF

>>> END DO

&MCKINLEY

-- ----------------------------------

--- Start Module: gateway at Wed Jul 10 21:42:51 2024 ---

()()()()()()()()()()()()()()()()()()()()()()()()()()()()()()()()()()()()()()()()()()()()()()()()()()

                                              &GATEWAY

                                   only a single process is used
                       available to each process: 2.0 GB of memory, 1 thread
                                            pid: 713417
()()()()()()()()()()()()()()()()()()()()()()()()()()()()()()()()()()()()()()()()()()()()()()()()()()


++    Symmetry information:
      ---------------------

                    Character Table for C1 

                             E  
                    a        1  x, y, xy, Rz, z, xz, Ry, yz, Rx, I
--


++    Basis set information:
      ----------------------


      Basis set label: C.6-31G**....

      Electronic valence basis set:
      ------------------
      Associated Effective Charge   6.000000 au
      Associated Actual Charge      6.000000 au
      Nuclear Model: Point charge

      Shell  nPrim  nBasis  Cartesian Spherical Contaminant
         s      10       3        X                  
         p       4       2        X                  
         d       1       1        X                  


      Basis set label: H.6-31G....

      Electronic valence basis set:
      ------------------
      Associated Effective Charge   1.000000 au
      Associated Actual Charge      1.000000 au
      Nuclear Model: Point charge

      Shell  nPrim  nBasis  Cartesian Spherical Contaminant
         s       4       2        X                  


      Basis set label: C.6-31G**....

      Electronic valence basis set:
      ------------------
      Associated Effective Charge   6.000000 au
      Associated Actual Charge      6.000000 au
      Nuclear Model: Point charge

      Shell  nPrim  nBasis  Cartesian Spherical Contaminant
         s      10       3        X                  
         p       4       2        X                  
         d       1       1        X                  


      Basis set label: H.6-31G....

      Electronic valence basis set:
      ------------------
      Associated Effective Charge   1.000000 au
      Associated Actual Charge      1.000000 au
      Nuclear Model: Point charge

      Shell  nPrim  nBasis  Cartesian Spherical Contaminant
         s       4       2        X                  
--


++    Molecular structure info:
      -------------------------

                    ************************************************ 
                    **** Cartesian Coordinates / Bohr, Angstrom **** 
                    ************************************************ 

     Center  Label                x              y              z                     x              y              z
        1      C1               1.504608       2.235589       0.000000              0.796204       1.183023       0.000000
        2      C2              -1.504608       2.235589       0.000000             -0.796204       1.183023       0.000000
        3      C3               2.539082       0.018711       0.000000              1.343624       0.009902       0.000000
        4      C4              -2.539082       0.018711       0.000000             -1.343624       0.009902       0.000000
        5      H5              -2.224805       4.124735       0.000000             -1.177316       2.182716       0.000000
        6      H6               2.224805       4.124735       0.000000              1.177316       2.182716       0.000000
        7      C7               1.351866      -2.258198       0.000000              0.715377      -1.194987       0.000000
        8      C8              -1.351866      -2.258198       0.000000             -0.715377      -1.194987       0.000000
        9      H9               2.245870      -4.077899       0.000000              1.188463      -2.157931       0.000000
       10      H10             -2.245870      -4.077899       0.000000             -1.188463      -2.157931       0.000000

                    *************************************** 
                    *    InterNuclear Distances / Bohr    * 
                    *************************************** 

               1 C1            2 C2            3 C3            4 C4            5 H5            6 H6    
    1 C1       0.000000
    2 C2       3.009216        0.000000
    3 C3       2.446361        4.611505        0.000000
    4 C4       4.611505        2.446361        5.078164        0.000000
    5 H5       4.180597        2.021770        6.289201        4.118033        0.000000
    6 H6       2.021770        4.180597        4.118033        6.289201        4.449610        0.000000
    7 C7       4.496382        5.324807        2.567839        4.508192        7.316721        6.442348
    8 C8       5.324807        4.496382        4.508192        2.567839        6.442348        7.316721
    9 H9       6.356854        7.343446        4.107090        6.299046        9.341848        8.202660
   10 H10      7.343446        6.356854        6.299046        4.107090        8.202660        9.341848

               7 C7            8 C8            9 H9           10 H10   
    7 C7       0.000000
    8 C8       2.703733        0.000000
    9 H9       2.027450        4.031751        0.000000
   10 H10      4.031751        2.027450        4.491739        0.000000

                    ******************************************* 
                    *    InterNuclear Distances / Angstrom    * 
                    ******************************************* 

               1 C1            2 C2            3 C3            4 C4            5 H5            6 H6    
    1 C1       0.000000
    2 C2       1.592409        0.000000
    3 C3       1.294559        2.440303        0.000000
    4 C4       2.440303        1.294559        2.687249        0.000000
    5 H5       2.212277        1.069875        3.328102        2.179169        0.000000
    6 H6       1.069875        2.212277        2.179169        3.328102        2.354632        0.000000
    7 C7       2.379383        2.817766        1.358842        2.385632        3.871842        3.409144
    8 C8       2.817766        2.379383        2.385632        1.358842        3.409144        3.871842
    9 H9       3.363902        3.885985        2.173378        3.333311        4.943493        4.340661
   10 H10      3.885985        3.363902        3.333311        2.173378        4.340661        4.943493

               7 C7            8 C8            9 H9           10 H10   
    7 C7       0.000000
    8 C8       1.430754        0.000000
    9 H9       1.072880        2.133511        0.000000
   10 H10      2.133511        1.072880        2.376926        0.000000

                    ************************************** 
                    *    Valence Bond Angles / Degree    * 
                    ************************************** 
                          Atom centers                 Phi
                      3 C3       1 C1       6 H6       134.12
                      4 C4       2 C2       5 H5       134.12
                      1 C1       3 C3       7 C7       127.45
                      2 C2       4 C4       8 C8       127.45
                      3 C3       7 C7       8 C8       117.54
                      3 C3       7 C7       9 H9       126.30
                      8 C8       7 C7       9 H9       116.16
                      4 C4       8 C8       7 C7       117.54
                      4 C4       8 C8      10 H10      126.30
                      7 C7       8 C8      10 H10      116.16

           ***************************************************************
           *              Valence Dihedral Angles / Degree               *
           ***************************************************************
                    Atom centers                       Phi1     Phi2     Theta 
           6 H6       1 C1       3 C3       7 C7        134.12   127.45  -180.00
           5 H5       2 C2       4 C4       8 C8        134.12   127.45  -180.00
           1 C1       3 C3       7 C7       8 C8        127.45   117.54    -0.00
           1 C1       3 C3       7 C7       9 H9        127.45   126.30  -180.00
           2 C2       4 C4       8 C8       7 C7        127.45   117.54     0.00
           2 C2       4 C4       8 C8      10 H10       127.45   126.30  -180.00
           3 C3       7 C7       8 C8       4 C4        117.54   117.54    -0.00
           3 C3       7 C7       8 C8      10 H10       117.54   116.16  -180.00
           9 H9       7 C7       8 C8      10 H10       116.16   116.16    -0.00
           4 C4       8 C8       7 C7       9 H9        117.54   116.16  -180.00
--


            Nuclear Potential Energy            186.23618787 au

--- Stop Module: gateway at Wed Jul 10 21:42:51 2024 /rc=_RC_ALL_IS_WELL_ ---
*** files: xmldump
    saved to directory /home/kenya/molcas_test/exercise_1

>>> COPY /home/kenya/molcas_test/exercise_1/ts.RasOrb INPORB

--- Start Module: seward at Wed Jul 10 21:42:51 2024 ---

()()()()()()()()()()()()()()()()()()()()()()()()()()()()()()()()()()()()()()()()()()()()()()()()()()

                                              &SEWARD

                                   only a single process is used
                       available to each process: 2.0 GB of memory, 1 thread
                                            pid: 713420
()()()()()()()()()()()()()()()()()()()()()()()()()()()()()()()()()()()()()()()()()()()()()()()()()()

               SEWARD will generate:
                  Multipole Moment integrals up to order  2
                  Kinetic Energy integrals
                  Nuclear Attraction integrals (point charge)
                  One-Electron Hamiltonian integrals
                  Velocity integrals
                  Orbital angular momentum around ( 0.0000  0.0000  0.0000 )
                  Velocity quadrupole around ( 0.0000  0.0000  0.0000 )
                  Two-Electron Repulsion integrals

                   Integrals are discarded if absolute value <: 1.00E-14
                   Integral cutoff threshold is set to       <: 1.00E-16

            Nuclear Potential Energy            186.23618787 au


      Basis set specifications :
      Symmetry species         a  
      Basis functions           98


      Input file to MOLDEN was generated!

--- Stop Module: seward at Wed Jul 10 21:42:53 2024 /rc=_RC_ALL_IS_WELL_ ---
*** files: ts.GssOrb ts.guessorb.molden xmldump
    saved to directory /home/kenya/molcas_test/exercise_1
--- Module seward spent 1 second ---

--- Start Module: rasscf at Wed Jul 10 21:42:53 2024 ---

()()()()()()()()()()()()()()()()()()()()()()()()()()()()()()()()()()()()()()()()()()()()()()()()()()

                                              &RASSCF

                                   only a single process is used
                       available to each process: 2.0 GB of memory, 1 thread
                                            pid: 713525
()()()()()()()()()()()()()()()()()()()()()()()()()()()()()()()()()()()()()()()()()()()()()()()()()()

 ###############################################################################
 ###############################################################################
 ###                                                                         ###
 ###                                                                         ###
 ###    WARNING: Had to guess the spin.                                      ###
 ###                                                                         ###
 ###                                                                         ###
 ###############################################################################
 ###############################################################################
  Warning: no input and no reliable source
  for the spin multiplicity.
  Guess ISPIN=                    1

      Header of the ONEINT file:
      --------------------------
      
      Integrals generated by Gateway/Seward, Wed Jul 10 21:42:51 2024


      OrdInt status: non-squared


      Cartesian coordinates in Angstrom:
      -----------------------------------------------------
      No.  Label        X            Y            Z        
      -----------------------------------------------------
       1   C1         0.79620437   1.18302262   0.00000000
       2   C2        -0.79620437   1.18302262   0.00000000
       3   C3         1.34362438   0.00990155   0.00000000
       4   C4        -1.34362438   0.00990155   0.00000000
       5   H5        -1.17731607   2.18271563   0.00000000
       6   H6         1.17731607   2.18271563   0.00000000
       7   C7         0.71537694  -1.19498676   0.00000000
       8   C8        -0.71537694  -1.19498676   0.00000000
       9   H9         1.18846301  -2.15793100   0.00000000
      10   H10       -1.18846301  -2.15793100   0.00000000
      -----------------------------------------------------
      Nuclear repulsion energy =  186.23618787

++    Wave function specifications:
      -----------------------------

      Number of closed shell electrons          28
      Number of electrons in active shells      12
      Max number of holes in RAS1 space          0
      Max nr of electrons in RAS3 space          0
      Number of inactive orbitals               14
      Number of active orbitals                 12
      Number of secondary orbitals              72
      Spin quantum number                      0.0
      State symmetry                             1
--

++    Orbital specifications:
      -----------------------

      Symmetry species                           1
                                                 a
      Frozen orbitals                            0
      Inactive orbitals                         14
      Active orbitals                           12
      RAS1 orbitals                              0
      RAS2 orbitals                             12
      RAS3 orbitals                              0
      Secondary orbitals                        72
      Deleted orbitals                           0
      Number of basis functions                 98
--

++    CI expansion specifications:
      ----------------------------

      Number of CSFs                        226512
      Number of determinants                427350
      Number of root(s) required                 1
      Root chosen for geometry opt.              1
      CI root used                               1
         
      highest root included in the CI            1
      max. size of the explicit Hamiltonian    200
--

++    Optimization specifications:
      ----------------------------

      RASSCF algorithm: Conventional
      Maximum number of macro iterations       200
      Maximum number of SX iterations          100
      Threshold for RASSCF energy            1.000E-08
      Threshold for max MO rotation          1.000E-01
      Threshold for max BLB element          1.000E-04
      Level shift parameter                  5.000E-01
      Make Quasi-Newton update
--

      The MO-coefficients are taken from the file:
      INPORB                                                                                                                                                                                                                                                          
      Title: RASSCF average (pseudo-natural) orbitals                                      

      Total molecular charge    0.00

      ************************************************************************************************************************
      *                                                                                                                      *
      *                                            Wave function control section                                             *
      *                                                                                                                      *
      ************************************************************************************************************************


                                         RASSCF iterations: Energy and convergence statistics
                                         ----------------------------------------------------

      Iter CI   SX   CI       RASSCF       Energy    max ROT     max BLB   max BLB  Level Ln srch  Step   QN   Walltime
          iter iter root      energy       change     param      element    value   shift minimum  type update hh:mm:ss
 Nr of preliminary CI iterations:   7
        1   1    5    1  -229.51990123    0.00E+00   3.29E-04    7  21 1  2.83E-04*  0.13   0.00    SX    NO    0:00:41
        2   1    5    1  -229.51990162   -3.87E-07*  9.18E-05    7  21 1  6.14E-05   0.13   0.00    SX    NO    0:00:13
        3   2    4    1  -229.51991259   -1.10E-05*  9.60E-05    7  21 1 -6.83E-05   0.13   0.00    SX    NO    0:00:15
        4   7    5    1  -229.51991928   -6.70E-06* -2.65E-04   18  44 1  1.72E-04*  0.13   0.00    SX    NO    0:00:32
        5   3    5    1  -229.51991948   -1.93E-07*  1.39E-04    7  21 1 -5.86E-05   0.13   1.40    QN   YES    0:00:19
        6   4    4    1  -229.51991952   -3.84E-08*  2.59E-05   17  61 1  1.33E-05   0.13   0.94    QN   YES    0:00:21
        7   1    4    1  -229.51991952   -1.77E-09  -3.44E-05   11  31 1 -7.14E-06   0.13   1.33    QN   YES    0:00:12
      Convergence after  7 iterations
        8   1    4    1  -229.51991952   -6.00E-10  -3.44E-05   17  61 1 -3.71E-06   0.13   1.33    QN   YES    0:00:15

      ************************************************************************************************************************
                                                      Wave function printout:
                       occupation of active orbitals, and spin coupling of open shells (u,d: Spin up or down)
      ************************************************************************************************************************

      Note: transformation to natural orbitals
      has been made, which may change the order of the CSFs.

      printout of CI-coefficients larger than  0.05 for root  1
      energy=    -229.519920
      conf/sym  111111111111     Coeff  Weight
             1  222222000000  -0.80934 0.65503
            38  222220200000   0.43472 0.18898
            83  222u2du0d000   0.12694 0.01611
           166  222202020000   0.11796 0.01391
           189  222ud20ud000  -0.08596 0.00739
           213  22u2d20u0d00  -0.08372 0.00701
           274  222022002000   0.08104 0.00657
           298  22ud2200ud00   0.07444 0.00554
           430  202222000020   0.06022 0.00363
           479  2222uudd0000   0.05739 0.00329
           556  222uu20dd000   0.08603 0.00740
          5604  222200220000  -0.06667 0.00444
          6132  222020202000  -0.06119 0.00374
         17029  222uu02dd000  -0.05918 0.00350

      Natural orbitals and occupation numbers for root  1
      sym 1:   1.977251   1.964234   1.957662   1.908587   1.898033   1.523763   0.482541   0.107706   0.090007   0.039536
               0.030544   0.020136

      ************************************************************************************************************************
      *                                                                                                                      *
      *                                                    Final results                                                     *
      *                                                                                                                      *
      ************************************************************************************************************************


++    Wave function specifications:
      -----------------------------

      Number of closed shell electrons          28
      Number of electrons in active shells      12
      Max number of holes in RAS1 space          0
      Max nr of electrons in RAS3 space          0
      Number of inactive orbitals               14
      Number of active orbitals                 12
      Number of secondary orbitals              72
      Spin quantum number                      0.0
      State symmetry                             1
--

++    Orbital specifications:
      -----------------------

      Symmetry species                           1
                                                 a
      Frozen orbitals                            0
      Inactive orbitals                         14
      Active orbitals                           12
      RAS1 orbitals                              0
      RAS2 orbitals                             12
      RAS3 orbitals                              0
      Secondary orbitals                        72
      Deleted orbitals                           0
      Number of basis functions                 98
--

++    CI expansion specifications:
      ----------------------------

      Number of CSFs                        226512
      Number of determinants                427350
      Number of root(s) required                 1
      CI root used                               1
      highest root included in the CI            1
      Root passed to geometry opt.               1
--

++    Final optimization conditions:
      ------------------------------

      Average CI energy                            -229.51991952
      RASSCF energy for state  1                   -229.51991952
      Super-CI energy                                -0.00000000
      RASSCF energy change                            0.00000000
      Max change in MO coefficients              -5.881E-05
      Max non-diagonal density matrix element    -3.441E-05
      Maximum BLB matrix element                 -3.710E-06
      (orbital pair  17,  61 in symmetry   1)
      Norm of electronic gradient            1.745E-05
--


      Final state energy(ies):
      ------------------------

::    RASSCF root number  1 Total energy:   -229.51991952

++    Molecular orbitals:
      -------------------

      Pseudonatural active orbitals and approximate occupation numbers




      Molecular orbitals for symmetry species 1: a  


      Orbital                 1         2         3         4         5         6         7         8         9        10
      Energy           -11.2347  -11.2344  -11.2342  -11.2335  -11.2213  -11.2211   -1.1127   -1.0077   -0.9259   -0.8396
      Occ. No.           2.0000    2.0000    2.0000    2.0000    2.0000    2.0000    2.0000    2.0000    2.0000    2.0000

     1 C1     1s         0.6934   -0.1089    0.6999   -0.0539    0.0549   -0.0547   -0.0869    0.0856    0.0911    0.0870
     2 C1     2s         0.0192   -0.0032    0.0196   -0.0015    0.0019   -0.0017    0.1619   -0.1671   -0.1720   -0.1723
     3 C1     *s        -0.0063    0.0012   -0.0133   -0.0010   -0.0088    0.0047    0.1034   -0.1100   -0.1481   -0.1602
     4 C1     2px        0.0006   -0.0000    0.0001   -0.0000    0.0002   -0.0008    0.0416   -0.0744   -0.0729   -0.0922
     5 C1     *px       -0.0002    0.0001    0.0018    0.0004    0.0008   -0.0002    0.0201   -0.0141   -0.0419   -0.0374
     6 C1     2py       -0.0001    0.0000   -0.0001   -0.0000   -0.0002    0.0002   -0.0780    0.0882   -0.0007    0.0123
     7 C1     *py        0.0004   -0.0003    0.0025    0.0009    0.0041   -0.0023   -0.0080   -0.0154   -0.0112   -0.0245
     8 C1     2pz        0.0000    0.0000   -0.0000   -0.0000    0.0000   -0.0000   -0.0000    0.0000    0.0000    0.0000
     9 C1     *pz       -0.0000    0.0000   -0.0000    0.0000   -0.0000   -0.0000   -0.0000   -0.0000   -0.0000   -0.0000
    10 C1     *200      -0.0012    0.0002   -0.0007    0.0001    0.0002   -0.0000    0.0012    0.0048   -0.0024    0.0028
    11 C1     *110      -0.0001    0.0000   -0.0002    0.0000   -0.0001    0.0001   -0.0027    0.0055    0.0011    0.0021
    12 C1     *101      -0.0000    0.0000   -0.0000   -0.0000    0.0000   -0.0000   -0.0000   -0.0000    0.0000   -0.0000
    13 C1     *020      -0.0006    0.0002   -0.0005    0.0001    0.0001   -0.0000    0.0068   -0.0087   -0.0064   -0.0071
    14 C1     *011      -0.0000    0.0000    0.0000    0.0000   -0.0000    0.0000    0.0000    0.0000    0.0000    0.0000
    15 C1     *002      -0.0011    0.0001   -0.0009    0.0001    0.0000    0.0000   -0.0045    0.0035    0.0044    0.0035
    16 C2     1s         0.6934   -0.1089   -0.6999    0.0539   -0.0549   -0.0547   -0.0869   -0.0856    0.0911   -0.0870
    17 C2     2s         0.0192   -0.0032   -0.0196    0.0015   -0.0019   -0.0017    0.1619    0.1671   -0.1720    0.1723
    18 C2     *s        -0.0063    0.0012    0.0133    0.0010    0.0088    0.0047    0.1034    0.1100   -0.1481    0.1602
    19 C2     2px       -0.0006    0.0000    0.0001   -0.0000    0.0002    0.0008   -0.0416   -0.0744    0.0729   -0.0922
    20 C2     *px        0.0002   -0.0001    0.0018    0.0004    0.0008    0.0002   -0.0201   -0.0141    0.0419   -0.0374
    21 C2     2py       -0.0001    0.0000    0.0001    0.0000    0.0002    0.0002   -0.0780   -0.0882   -0.0007   -0.0123
    22 C2     *py        0.0004   -0.0003   -0.0025   -0.0009   -0.0041   -0.0023   -0.0080    0.0154   -0.0112    0.0245
    23 C2     2pz        0.0000    0.0000   -0.0000    0.0000    0.0000   -0.0000   -0.0000   -0.0000    0.0000   -0.0000
    24 C2     *pz       -0.0000   -0.0000    0.0000   -0.0000    0.0000    0.0000    0.0000    0.0000    0.0000    0.0000
    25 C2     *200      -0.0012    0.0002    0.0007   -0.0001   -0.0002   -0.0000    0.0012   -0.0048   -0.0024   -0.0028
    26 C2     *110       0.0001   -0.0000   -0.0002    0.0000   -0.0001   -0.0001    0.0027    0.0055   -0.0011    0.0021
    27 C2     *101       0.0000    0.0000    0.0000   -0.0000   -0.0000    0.0000   -0.0000   -0.0000    0.0000   -0.0000
    28 C2     *020      -0.0006    0.0002    0.0005   -0.0001   -0.0001   -0.0000    0.0068    0.0087   -0.0064    0.0071
    29 C2     *011      -0.0000   -0.0000    0.0000   -0.0000    0.0000    0.0000   -0.0000    0.0000    0.0000   -0.0000
    30 C2     *002      -0.0011    0.0001    0.0009   -0.0001   -0.0000    0.0000   -0.0045   -0.0035    0.0044   -0.0035
    31 C3     1s         0.0588    0.0271    0.0570    0.0351   -0.7009    0.7012   -0.1180    0.1261   -0.0043   -0.0062
    32 C3     2s         0.0014    0.0006    0.0013    0.0008   -0.0201    0.0196    0.2256   -0.2412    0.0094    0.0138
    33 C3     *s         0.0025    0.0017    0.0062    0.0055    0.0159   -0.0115    0.1421   -0.1916    0.0095    0.0090
    34 C3     2px        0.0002    0.0000    0.0001    0.0001    0.0012   -0.0011   -0.0654    0.0852   -0.0089   -0.0130
    35 C3     *px       -0.0004   -0.0004   -0.0018   -0.0017   -0.0041    0.0026   -0.0091    0.0364   -0.0043   -0.0063
    36 C3     2py       -0.0001    0.0002   -0.0001    0.0001   -0.0000   -0.0000    0.0134   -0.0243   -0.1999   -0.2224
    37 C3     *py        0.0010   -0.0012    0.0014   -0.0012    0.0004   -0.0003   -0.0037   -0.0021   -0.0223   -0.0264
    38 C3     2pz       -0.0000    0.0000   -0.0000   -0.0000   -0.0000    0.0000    0.0000   -0.0000    0.0000   -0.0000
    39 C3     *pz        0.0000   -0.0000   -0.0000    0.0000    0.0000   -0.0000    0.0000   -0.0000    0.0000    0.0000
    40 C3     *200      -0.0002   -0.0001   -0.0003   -0.0002    0.0010   -0.0010   -0.0022    0.0024    0.0004    0.0005
    41 C3     *110      -0.0000   -0.0000   -0.0000   -0.0001    0.0000   -0.0000   -0.0005    0.0008    0.0092    0.0115
    42 C3     *101      -0.0000    0.0000    0.0000   -0.0000   -0.0000   -0.0000    0.0000   -0.0000   -0.0000   -0.0000
    43 C3     *020      -0.0001   -0.0002   -0.0002   -0.0003    0.0004   -0.0005    0.0074   -0.0082    0.0011    0.0012
    44 C3     *011      -0.0000   -0.0000    0.0000    0.0000    0.0000    0.0000    0.0000   -0.0000    0.0000    0.0000
    45 C3     *002      -0.0002   -0.0001   -0.0001   -0.0001    0.0010   -0.0010   -0.0052    0.0054   -0.0004   -0.0004
    46 C4     1s         0.0588    0.0271   -0.0570   -0.0351    0.7009    0.7012   -0.1180   -0.1261   -0.0043    0.0062
    47 C4     2s         0.0014    0.0006   -0.0013   -0.0008    0.0201    0.0196    0.2256    0.2412    0.0094   -0.0138
    48 C4     *s         0.0025    0.0017   -0.0062   -0.0055   -0.0159   -0.0115    0.1421    0.1916    0.0095   -0.0090
    49 C4     2px       -0.0002   -0.0000    0.0001    0.0001    0.0012    0.0011    0.0654    0.0852    0.0089   -0.0130
    50 C4     *px        0.0004    0.0004   -0.0018   -0.0017   -0.0041   -0.0026    0.0091    0.0364    0.0043   -0.0063
    51 C4     2py       -0.0001    0.0002    0.0001   -0.0001    0.0000   -0.0000    0.0134    0.0243   -0.1999    0.2224
    52 C4     *py        0.0010   -0.0012   -0.0014    0.0012   -0.0004   -0.0003   -0.0037    0.0021   -0.0223    0.0264
    53 C4     2pz       -0.0000   -0.0000   -0.0000   -0.0000    0.0000   -0.0000   -0.0000   -0.0000    0.0000    0.0000
    54 C4     *pz        0.0000    0.0000   -0.0000    0.0000   -0.0000    0.0000   -0.0000   -0.0000   -0.0000    0.0000
    55 C4     *200      -0.0002   -0.0001    0.0003    0.0002   -0.0010   -0.0010   -0.0022   -0.0024    0.0004   -0.0005
    56 C4     *110       0.0000    0.0000   -0.0000   -0.0001    0.0000    0.0000    0.0005    0.0008   -0.0092    0.0115
    57 C4     *101       0.0000   -0.0000    0.0000   -0.0000   -0.0000    0.0000    0.0000   -0.0000    0.0000   -0.0000
    58 C4     *020      -0.0001   -0.0002    0.0002    0.0003   -0.0004   -0.0005    0.0074    0.0082    0.0011   -0.0012
    59 C4     *011       0.0000    0.0000    0.0000   -0.0000   -0.0000   -0.0000    0.0000   -0.0000   -0.0000    0.0000
    60 C4     *002      -0.0002   -0.0001    0.0001    0.0001   -0.0010   -0.0010   -0.0052   -0.0054   -0.0004    0.0004
    61 H5     1s        -0.0002    0.0000    0.0002    0.0000    0.0001   -0.0000    0.0392    0.0411   -0.0871    0.0829
    62 H5     *s         0.0014   -0.0001   -0.0009    0.0003    0.0007    0.0003    0.0102   -0.0007   -0.0334    0.0201
    63 H6     1s        -0.0002    0.0000   -0.0002   -0.0000   -0.0001   -0.0000    0.0392   -0.0411   -0.0871   -0.0829
    64 H6     *s         0.0014   -0.0001    0.0009   -0.0003   -0.0007    0.0003    0.0102    0.0007   -0.0334   -0.0201
    65 C7     1s         0.1062    0.6948    0.0510    0.7012    0.0398   -0.0363   -0.0705    0.0662   -0.0978   -0.0961
    66 C7     2s         0.0028    0.0196    0.0015    0.0199    0.0013   -0.0011    0.1319   -0.1295    0.1850    0.1916
    67 C7     *s        -0.0007   -0.0061   -0.0029   -0.0142   -0.0085    0.0038    0.0756   -0.0872    0.1565    0.1735
    68 C7     2px        0.0001   -0.0000   -0.0000   -0.0001    0.0001   -0.0006    0.0521   -0.0711    0.0935    0.1181
    69 C7     *px       -0.0000   -0.0006    0.0008    0.0022    0.0012   -0.0001    0.0234   -0.0118    0.0563    0.0540
    70 C7     2py       -0.0000    0.0002    0.0000    0.0002    0.0002   -0.0002    0.0709   -0.0699    0.0032    0.0178
    71 C7     *py        0.0002   -0.0005   -0.0011   -0.0026   -0.0038    0.0019    0.0090    0.0043   -0.0092   -0.0223
    72 C7     2pz       -0.0000   -0.0000    0.0000   -0.0000   -0.0000    0.0000    0.0000   -0.0000    0.0000    0.0000
    73 C7     *pz       -0.0000    0.0000    0.0000    0.0000    0.0000   -0.0000   -0.0000    0.0000    0.0000    0.0000
    74 C7     *200      -0.0002   -0.0010   -0.0001   -0.0005    0.0002   -0.0001    0.0011    0.0032    0.0028   -0.0025
    75 C7     *110       0.0000    0.0001   -0.0000    0.0001    0.0002   -0.0002    0.0027   -0.0052   -0.0005    0.0009
    76 C7     *101       0.0000   -0.0000    0.0000   -0.0000   -0.0000    0.0000   -0.0000    0.0000    0.0000   -0.0000
    77 C7     *020      -0.0001   -0.0008    0.0000   -0.0006    0.0002   -0.0001    0.0062   -0.0080    0.0065    0.0081
    78 C7     *011      -0.0000   -0.0000    0.0000   -0.0000    0.0000    0.0000    0.0000   -0.0000    0.0000    0.0000
    79 C7     *002      -0.0002   -0.0010   -0.0000   -0.0009    0.0000   -0.0000   -0.0039    0.0030   -0.0048   -0.0039
    80 C8     1s         0.1062    0.6948   -0.0510   -0.7012   -0.0398   -0.0363   -0.0705   -0.0662   -0.0978    0.0961
    81 C8     2s         0.0028    0.0196   -0.0015   -0.0199   -0.0013   -0.0011    0.1319    0.1295    0.1850   -0.1916
    82 C8     *s        -0.0007   -0.0061    0.0029    0.0142    0.0085    0.0038    0.0756    0.0872    0.1565   -0.1735
    83 C8     2px       -0.0001    0.0000   -0.0000   -0.0001    0.0001    0.0006   -0.0521   -0.0711   -0.0935    0.1181
    84 C8     *px        0.0000    0.0006    0.0008    0.0022    0.0012    0.0001   -0.0234   -0.0118   -0.0563    0.0540
    85 C8     2py       -0.0000    0.0002   -0.0000   -0.0002   -0.0002   -0.0002    0.0709    0.0699    0.0032   -0.0178
    86 C8     *py        0.0002   -0.0005    0.0011    0.0026    0.0038    0.0019    0.0090   -0.0043   -0.0092    0.0223
    87 C8     2pz       -0.0000   -0.0000   -0.0000    0.0000    0.0000    0.0000    0.0000    0.0000    0.0000   -0.0000
    88 C8     *pz        0.0000    0.0000   -0.0000   -0.0000   -0.0000    0.0000    0.0000   -0.0000   -0.0000    0.0000
    89 C8     *200      -0.0002   -0.0010    0.0001    0.0005   -0.0002   -0.0001    0.0011   -0.0032    0.0028    0.0025
    90 C8     *110      -0.0000   -0.0001   -0.0000    0.0001    0.0002    0.0002   -0.0027   -0.0052    0.0005    0.0009
    91 C8     *101      -0.0000   -0.0000   -0.0000    0.0000   -0.0000    0.0000   -0.0000   -0.0000   -0.0000    0.0000
    92 C8     *020      -0.0001   -0.0008   -0.0000    0.0006   -0.0002   -0.0001    0.0062    0.0080    0.0065   -0.0081
    93 C8     *011       0.0000   -0.0000   -0.0000   -0.0000   -0.0000   -0.0000    0.0000   -0.0000    0.0000   -0.0000
    94 C8     *002      -0.0002   -0.0010    0.0000    0.0009   -0.0000   -0.0000   -0.0039   -0.0030   -0.0048    0.0039
    95 H9     1s        -0.0000   -0.0002   -0.0001   -0.0002   -0.0001   -0.0000    0.0345   -0.0358    0.0973    0.0967
    96 H9     *s         0.0003    0.0012   -0.0001    0.0008   -0.0006    0.0004    0.0115   -0.0046    0.0399    0.0256
    97 H10    1s        -0.0000   -0.0002    0.0001    0.0002    0.0001   -0.0000    0.0345    0.0358    0.0973   -0.0967
    98 H10    *s         0.0003    0.0012    0.0001   -0.0008    0.0006    0.0004    0.0115    0.0046    0.0399   -0.0256


      Orbital                11        12        13        14        15        16        17        18        19        20
      Energy            -0.7537   -0.6481   -0.6329   -0.5419   -0.6959   -0.0016   -0.0000   -0.1099   -0.0000    0.0000
      Occ. No.           2.0000    2.0000    2.0000    2.0000    1.9773    1.9642    1.9577    1.9086    1.8980    1.5238

     1 C1     1s        -0.0411   -0.0412    0.0115    0.0049    0.0032    0.0639    0.0000   -0.0000   -0.0000    0.0395
     2 C1     2s         0.0797    0.0816   -0.0221   -0.0123   -0.0077   -0.1314    0.0000   -0.0000    0.0000   -0.0976
     3 C1     *s         0.0800    0.0909   -0.0323    0.0040   -0.0026   -0.1181   -0.0000    0.0000    0.0000   -0.0509
     4 C1     2px        0.0323    0.0456   -0.0155   -0.0210    0.0139    0.3696   -0.0000    0.0000    0.0000    0.0618
     5 C1     *px        0.0234    0.0271    0.0001   -0.0088    0.0006    0.1684   -0.0000   -0.0000    0.0000    0.0565
     6 C1     2py        0.2024    0.2309    0.2338    0.2110   -0.0067    0.0088    0.0000   -0.0000   -0.0000    0.0533
     7 C1     *py        0.0828    0.1152    0.0990    0.0946   -0.0045    0.0165    0.0000   -0.0000    0.0000   -0.0863
     8 C1     2pz        0.0000    0.0000    0.0000    0.0000    0.0000   -0.0000    0.2075   -0.2128   -0.2721    0.0000
     9 C1     *pz       -0.0000   -0.0000   -0.0000   -0.0000   -0.0000    0.0000    0.1293   -0.1519   -0.2185    0.0000
    10 C1     *200       0.0020   -0.0008   -0.0010   -0.0009   -0.0004   -0.0110    0.0000   -0.0000   -0.0000    0.0089
    11 C1     *110       0.0058    0.0170    0.0090    0.0168   -0.0014   -0.0052   -0.0000   -0.0000    0.0000   -0.0069
    12 C1     *101      -0.0000   -0.0000   -0.0000   -0.0000   -0.0000    0.0000   -0.0026   -0.0123    0.0077    0.0000
    13 C1     *020       0.0050    0.0065    0.0058    0.0062   -0.0003    0.0057   -0.0000   -0.0000    0.0000   -0.0081
    14 C1     *011      -0.0000   -0.0000   -0.0000    0.0000    0.0000   -0.0000   -0.0113    0.0148    0.0031    0.0000
    15 C1     *002      -0.0018   -0.0018    0.0001   -0.0002    0.0005    0.0023    0.0000    0.0000   -0.0000   -0.0003
    16 C2     1s        -0.0411    0.0412    0.0115   -0.0049    0.0032    0.0639   -0.0000    0.0000    0.0000   -0.0395
    17 C2     2s         0.0797   -0.0816   -0.0221    0.0123   -0.0077   -0.1314    0.0000   -0.0000   -0.0000    0.0976
    18 C2     *s         0.0800   -0.0909   -0.0323   -0.0040   -0.0026   -0.1181    0.0000   -0.0000   -0.0000    0.0509
    19 C2     2px       -0.0323    0.0456    0.0155   -0.0210   -0.0139   -0.3696    0.0000   -0.0000   -0.0000    0.0618
    20 C2     *px       -0.0234    0.0271   -0.0001   -0.0088   -0.0006   -0.1684   -0.0000   -0.0000    0.0000    0.0565
    21 C2     2py        0.2024   -0.2309    0.2338   -0.2110   -0.0067    0.0088    0.0000   -0.0000   -0.0000   -0.0533
    22 C2     *py        0.0828   -0.1152    0.0990   -0.0946   -0.0045    0.0165   -0.0000    0.0000   -0.0000    0.0863
    23 C2     2pz       -0.0000    0.0000   -0.0000    0.0000   -0.0000    0.0000    0.2075    0.2128   -0.2721   -0.0000
    24 C2     *pz        0.0000    0.0000   -0.0000    0.0000    0.0000   -0.0000    0.1293    0.1519   -0.2185    0.0000
    25 C2     *200       0.0020    0.0008   -0.0010    0.0009   -0.0004   -0.0110    0.0000    0.0000   -0.0000   -0.0089
    26 C2     *110      -0.0058    0.0170   -0.0090    0.0168    0.0014    0.0052    0.0000    0.0000   -0.0000   -0.0069
    27 C2     *101       0.0000    0.0000    0.0000   -0.0000   -0.0000   -0.0000    0.0026   -0.0123   -0.0077   -0.0000
    28 C2     *020       0.0050   -0.0065    0.0058   -0.0062   -0.0003    0.0057   -0.0000    0.0000    0.0000    0.0081
    29 C2     *011      -0.0000    0.0000   -0.0000    0.0000    0.0000   -0.0000   -0.0113   -0.0148    0.0031   -0.0000
    30 C2     *002      -0.0018    0.0018    0.0001    0.0002    0.0005    0.0023   -0.0000   -0.0000    0.0000    0.0003
    31 C3     1s         0.0452    0.0552    0.0011   -0.0093   -0.0382   -0.0396   -0.0000    0.0000   -0.0000   -0.0554
    32 C3     2s        -0.0889   -0.1118   -0.0011    0.0203    0.0833    0.0854    0.0000   -0.0000   -0.0000    0.1147
    33 C3     *s        -0.0352   -0.0519    0.0127    0.0215    0.0902    0.0971    0.0000   -0.0000    0.0000    0.0751
    34 C3     2px        0.0782    0.0722   -0.0044   -0.0175    0.0519    0.0785   -0.0000    0.0000   -0.0000    0.3882
    35 C3     *px        0.0079    0.0033   -0.0031   -0.0067    0.0160    0.0292   -0.0000    0.0000   -0.0000    0.3492
    36 C3     2py       -0.0066   -0.0258   -0.2302   -0.2431   -0.0587    0.0628    0.0000    0.0000   -0.0000   -0.0125
    37 C3     *py        0.0031   -0.0048   -0.0432   -0.0675   -0.0202    0.0122    0.0000    0.0000   -0.0000   -0.0192
    38 C3     2pz        0.0000   -0.0000   -0.0000   -0.0000    0.0000    0.0000    0.2247   -0.3219   -0.0428    0.0000
    39 C3     *pz       -0.0000   -0.0000    0.0000   -0.0000   -0.0000    0.0000    0.1188   -0.2184   -0.0324   -0.0000
    40 C3     *200      -0.0036   -0.0023    0.0007    0.0007   -0.0054   -0.0053    0.0000   -0.0000    0.0000   -0.0023
    41 C3     *110       0.0012    0.0033    0.0190    0.0177   -0.0052    0.0081    0.0000   -0.0000   -0.0000    0.0008
    42 C3     *101      -0.0000    0.0000    0.0000   -0.0000    0.0000   -0.0000   -0.0136    0.0117    0.0005   -0.0000
    43 C3     *020       0.0012    0.0017   -0.0002   -0.0003    0.0042    0.0048    0.0000    0.0000   -0.0000   -0.0026
    44 C3     *011      -0.0000    0.0000    0.0000    0.0000    0.0000    0.0000    0.0010   -0.0041   -0.0226   -0.0000
    45 C3     *002       0.0023    0.0019    0.0001   -0.0002   -0.0001   -0.0000   -0.0000    0.0000   -0.0000    0.0016
    46 C4     1s         0.0452   -0.0552    0.0011    0.0093   -0.0382   -0.0396    0.0000    0.0000   -0.0000    0.0554
    47 C4     2s        -0.0889    0.1118   -0.0011   -0.0203    0.0833    0.0854   -0.0000   -0.0000   -0.0000   -0.1147
    48 C4     *s        -0.0352    0.0519    0.0127   -0.0215    0.0902    0.0971   -0.0000    0.0000    0.0000   -0.0751
    49 C4     2px       -0.0782    0.0722    0.0044   -0.0175   -0.0519   -0.0785   -0.0000   -0.0000    0.0000    0.3882
    50 C4     *px       -0.0079    0.0033    0.0031   -0.0067   -0.0160   -0.0292   -0.0000    0.0000   -0.0000    0.3492
    51 C4     2py       -0.0066    0.0258   -0.2302    0.2431   -0.0587    0.0628    0.0000    0.0000    0.0000    0.0125
    52 C4     *py        0.0031    0.0048   -0.0432    0.0675   -0.0202    0.0122   -0.0000   -0.0000    0.0000    0.0192
    53 C4     2pz       -0.0000   -0.0000    0.0000   -0.0000   -0.0000    0.0000    0.2247    0.3219   -0.0428   -0.0000
    54 C4     *pz       -0.0000   -0.0000    0.0000   -0.0000    0.0000   -0.0000    0.1188    0.2184   -0.0324   -0.0000
    55 C4     *200      -0.0036    0.0023    0.0007   -0.0007   -0.0054   -0.0053   -0.0000    0.0000    0.0000    0.0023
    56 C4     *110      -0.0012    0.0033   -0.0190    0.0177    0.0052   -0.0081   -0.0000   -0.0000   -0.0000    0.0008
    57 C4     *101      -0.0000    0.0000    0.0000   -0.0000   -0.0000    0.0000    0.0136    0.0117   -0.0005   -0.0000
    58 C4     *020       0.0012   -0.0017   -0.0002    0.0003    0.0042    0.0048   -0.0000    0.0000   -0.0000    0.0026
    59 C4     *011       0.0000   -0.0000   -0.0000    0.0000   -0.0000    0.0000    0.0010    0.0041   -0.0226    0.0000
    60 C4     *002       0.0023   -0.0019    0.0001    0.0002   -0.0001   -0.0000   -0.0000   -0.0000   -0.0000   -0.0016
    61 H5     1s         0.1440   -0.1771    0.1197   -0.1240   -0.0054    0.0465   -0.0000   -0.0000    0.0000    0.0213
    62 H5     *s         0.0750   -0.1052    0.0855   -0.1018   -0.0028    0.0600    0.0000   -0.0000    0.0000   -0.0136
    63 H6     1s         0.1440    0.1771    0.1197    0.1240   -0.0054    0.0465    0.0000   -0.0000    0.0000   -0.0213
    64 H6     *s         0.0750    0.1052    0.0855    0.1018   -0.0028    0.0600   -0.0000    0.0000   -0.0000    0.0136
    65 C7     1s        -0.0391   -0.0376   -0.0091    0.0028    0.0835   -0.0130    0.0000   -0.0000   -0.0000    0.0316
    66 C7     2s         0.0750    0.0751    0.0201   -0.0012   -0.1703    0.0270    0.0000   -0.0000   -0.0000   -0.0803
    67 C7     *s         0.0812    0.0698    0.0255   -0.0176   -0.1147    0.0200   -0.0000    0.0000   -0.0000   -0.0438
    68 C7     2px        0.0419    0.0526    0.0059    0.0026    0.3825   -0.0549    0.0000    0.0000    0.0000    0.0221
    69 C7     *px        0.0317    0.0354   -0.0002   -0.0010    0.1398   -0.0277    0.0000    0.0000   -0.0000    0.0207
    70 C7     2py       -0.1896   -0.1638    0.2458    0.2601   -0.0015    0.0136    0.0000    0.0000   -0.0000   -0.0467
    71 C7     *py       -0.0755   -0.0991    0.1028    0.1364   -0.0090    0.0074   -0.0000    0.0000   -0.0000    0.0731
    72 C7     2pz        0.0000    0.0000   -0.0000   -0.0000    0.0000   -0.0000    0.2248   -0.1451    0.2950   -0.0000
    73 C7     *pz        0.0000    0.0000   -0.0000   -0.0000    0.0000    0.0000    0.1391   -0.1061    0.2363    0.0000
    74 C7     *200       0.0021    0.0001    0.0008    0.0001   -0.0100    0.0021   -0.0000   -0.0000   -0.0000    0.0083
    75 C7     *110      -0.0062   -0.0157    0.0083    0.0242    0.0044    0.0019   -0.0000    0.0000    0.0000    0.0054
    76 C7     *101       0.0000    0.0000   -0.0000    0.0000   -0.0000   -0.0000   -0.0063   -0.0110   -0.0144   -0.0000
    77 C7     *020       0.0030    0.0032   -0.0049   -0.0056    0.0082   -0.0024    0.0000   -0.0000   -0.0000   -0.0075
    78 C7     *011      -0.0000    0.0000    0.0000    0.0000   -0.0000   -0.0000    0.0102   -0.0125   -0.0006    0.0000
    79 C7     *002      -0.0016   -0.0015   -0.0001    0.0005    0.0031    0.0000   -0.0000    0.0000   -0.0000   -0.0003
    80 C8     1s        -0.0391    0.0376   -0.0091   -0.0028    0.0835   -0.0130    0.0000   -0.0000    0.0000   -0.0316
    81 C8     2s         0.0750   -0.0751    0.0201    0.0012   -0.1703    0.0270   -0.0000   -0.0000   -0.0000    0.0803
    82 C8     *s         0.0812   -0.0698    0.0255    0.0176   -0.1147    0.0200    0.0000    0.0000    0.0000    0.0438
    83 C8     2px       -0.0419    0.0526   -0.0059    0.0026   -0.3825    0.0549   -0.0000   -0.0000   -0.0000    0.0221
    84 C8     *px       -0.0317    0.0354    0.0002   -0.0010   -0.1398    0.0277    0.0000    0.0000   -0.0000    0.0207
    85 C8     2py       -0.1896    0.1638    0.2458   -0.2601   -0.0015    0.0136    0.0000    0.0000    0.0000    0.0467
    86 C8     *py       -0.0755    0.0991    0.1028   -0.1364   -0.0090    0.0074    0.0000   -0.0000   -0.0000   -0.0731
    87 C8     2pz       -0.0000    0.0000    0.0000   -0.0000    0.0000    0.0000    0.2248    0.1451    0.2950    0.0000
    88 C8     *pz        0.0000   -0.0000   -0.0000    0.0000   -0.0000    0.0000    0.1391    0.1061    0.2363    0.0000
    89 C8     *200       0.0021   -0.0001    0.0008   -0.0001   -0.0100    0.0021   -0.0000   -0.0000   -0.0000   -0.0083
    90 C8     *110       0.0062   -0.0157   -0.0083    0.0242   -0.0044   -0.0019    0.0000   -0.0000    0.0000    0.0054
    91 C8     *101      -0.0000    0.0000    0.0000   -0.0000    0.0000    0.0000    0.0063   -0.0110    0.0144   -0.0000
    92 C8     *020       0.0030   -0.0032   -0.0049    0.0056    0.0082   -0.0024    0.0000   -0.0000    0.0000    0.0075
    93 C8     *011      -0.0000    0.0000    0.0000   -0.0000   -0.0000   -0.0000    0.0102    0.0125   -0.0006   -0.0000
    94 C8     *002      -0.0016    0.0015   -0.0001   -0.0005    0.0031    0.0000   -0.0000   -0.0000   -0.0000    0.0003
    95 H9     1s         0.1344    0.1379   -0.1235   -0.1635    0.0454   -0.0184    0.0000   -0.0000    0.0000   -0.0208
    96 H9     *s         0.0690    0.0765   -0.0869   -0.1283    0.0602   -0.0223   -0.0000    0.0000   -0.0000    0.0109
    97 H10    1s         0.1344   -0.1379   -0.1235    0.1635    0.0454   -0.0184   -0.0000   -0.0000    0.0000    0.0208
    98 H10    *s         0.0690   -0.0765   -0.0869    0.1283    0.0602   -0.0223    0.0000   -0.0000   -0.0000   -0.0109


      Orbital                21        22        23        24        25        26
      Energy            -0.0000   -0.0000    0.0000    0.0000    0.0000   -0.0000
      Occ. No.           0.4825    0.1077    0.0900    0.0395    0.0305    0.0201

     1 C1     1s        -0.0013    0.0000    0.0000    0.0000   -0.0959    0.0028
     2 C1     2s         0.0032    0.0000   -0.0000   -0.0000    0.3782   -0.0269
     3 C1     *s        -0.0441   -0.0000   -0.0000    0.0000    0.5439   -0.1339
     4 C1     2px        0.1770   -0.0000    0.0000    0.0000   -0.6777    0.1020
     5 C1     *px        0.1355   -0.0000    0.0000   -0.0000   -0.4005    0.0847
     6 C1     2py       -0.0398    0.0000    0.0000   -0.0000   -0.0169   -0.0254
     7 C1     *py        0.0356   -0.0000    0.0000    0.0000   -0.0490    0.0481
     8 C1     2pz        0.0000   -0.3951   -0.2746   -0.3786   -0.0000   -0.0000
     9 C1     *pz       -0.0000   -0.2377   -0.2053   -0.2014    0.0000    0.0000
    10 C1     *200      -0.0104    0.0000   -0.0000   -0.0000    0.0025   -0.0036
    11 C1     *110       0.0086    0.0000    0.0000   -0.0000    0.0137   -0.0000
    12 C1     *101       0.0000   -0.0005    0.0312    0.0167   -0.0000   -0.0000
    13 C1     *020       0.0118    0.0000    0.0000   -0.0000   -0.0239    0.0046
    14 C1     *011      -0.0000    0.0079   -0.0121   -0.0026   -0.0000    0.0000
    15 C1     *002      -0.0006   -0.0000    0.0000   -0.0000   -0.0043    0.0012
    16 C2     1s        -0.0013   -0.0000   -0.0000   -0.0000    0.0959   -0.0028
    17 C2     2s         0.0032    0.0000   -0.0000    0.0000   -0.3782    0.0269
    18 C2     *s        -0.0441   -0.0000   -0.0000    0.0000   -0.5439    0.1339
    19 C2     2px       -0.1770    0.0000    0.0000    0.0000   -0.6777    0.1020
    20 C2     *px       -0.1355   -0.0000    0.0000    0.0000   -0.4005    0.0847
    21 C2     2py       -0.0398    0.0000   -0.0000   -0.0000    0.0169    0.0254
    22 C2     *py        0.0356   -0.0000   -0.0000    0.0000    0.0490   -0.0481
    23 C2     2pz       -0.0000    0.3951   -0.2746    0.3786    0.0000   -0.0000
    24 C2     *pz        0.0000    0.2377   -0.2053    0.2014   -0.0000    0.0000
    25 C2     *200      -0.0104    0.0000    0.0000   -0.0000   -0.0025    0.0036
    26 C2     *110      -0.0086   -0.0000    0.0000    0.0000    0.0137   -0.0000
    27 C2     *101       0.0000   -0.0005   -0.0312    0.0167   -0.0000    0.0000
    28 C2     *020       0.0118    0.0000    0.0000   -0.0000    0.0239   -0.0046
    29 C2     *011       0.0000   -0.0079   -0.0121    0.0026   -0.0000   -0.0000
    30 C2     *002      -0.0006   -0.0000    0.0000   -0.0000    0.0043   -0.0012
    31 C3     1s         0.0470    0.0000   -0.0000    0.0000   -0.0047   -0.0015
    32 C3     2s        -0.1111    0.0000   -0.0000   -0.0000    0.0484   -0.0326
    33 C3     *s        -0.1807   -0.0000    0.0000    0.0000   -0.0184    0.1367
    34 C3     2px       -0.4177   -0.0000    0.0000   -0.0000    0.1515   -0.1399
    35 C3     *px       -0.3224    0.0000   -0.0000   -0.0000    0.1076   -0.1513
    36 C3     2py        0.0232   -0.0000    0.0000    0.0000   -0.0401   -0.0262
    37 C3     *py        0.0098    0.0000    0.0000   -0.0000   -0.0135   -0.0068
    38 C3     2pz        0.0000    0.0623    0.4591    0.3893   -0.0000   -0.0000
    39 C3     *pz       -0.0000    0.0385    0.3455    0.2857    0.0000    0.0000
    40 C3     *200      -0.0105    0.0000    0.0000   -0.0000    0.0142   -0.0132
    41 C3     *110       0.0019   -0.0000   -0.0000    0.0000   -0.0180   -0.0103
    42 C3     *101      -0.0000    0.0017    0.0151    0.0193    0.0000    0.0000
    43 C3     *020       0.0115    0.0000    0.0000    0.0000   -0.0171    0.0155
    44 C3     *011       0.0000   -0.0302   -0.0003    0.0028   -0.0000   -0.0000
    45 C3     *002       0.0006    0.0000    0.0000    0.0000   -0.0008   -0.0006
    46 C4     1s         0.0470   -0.0000    0.0000   -0.0000    0.0047    0.0015
    47 C4     2s        -0.1111    0.0000    0.0000   -0.0000   -0.0484    0.0326
    48 C4     *s        -0.1807   -0.0000   -0.0000    0.0000    0.0184   -0.1367
    49 C4     2px        0.4177   -0.0000    0.0000   -0.0000    0.1515   -0.1399
    50 C4     *px        0.3224    0.0000   -0.0000    0.0000    0.1076   -0.1513
    51 C4     2py        0.0232   -0.0000    0.0000    0.0000    0.0401    0.0262
    52 C4     *py        0.0098    0.0000    0.0000    0.0000    0.0135    0.0068
    53 C4     2pz       -0.0000   -0.0623    0.4591   -0.3893    0.0000    0.0000
    54 C4     *pz        0.0000   -0.0385    0.3455   -0.2857   -0.0000   -0.0000
    55 C4     *200      -0.0105    0.0000    0.0000   -0.0000   -0.0142    0.0132
    56 C4     *110      -0.0019    0.0000    0.0000   -0.0000   -0.0180   -0.0103
    57 C4     *101      -0.0000    0.0017   -0.0151    0.0193   -0.0000    0.0000
    58 C4     *020       0.0115   -0.0000    0.0000   -0.0000    0.0171   -0.0155
    59 C4     *011      -0.0000    0.0302   -0.0003   -0.0028   -0.0000   -0.0000
    60 C4     *002       0.0006    0.0000    0.0000   -0.0000    0.0008    0.0006
    61 H5     1s         0.0568    0.0000   -0.0000   -0.0000    0.0223   -0.0002
    62 H5     *s         0.0525    0.0000    0.0000   -0.0000    0.0056    0.0186
    63 H6     1s         0.0568    0.0000    0.0000   -0.0000   -0.0223    0.0002
    64 H6     *s         0.0525    0.0000   -0.0000   -0.0000   -0.0056   -0.0186
    65 C7     1s        -0.0028    0.0000    0.0000   -0.0000    0.0284    0.1090
    66 C7     2s         0.0062    0.0000   -0.0000   -0.0000   -0.0984   -0.5198
    67 C7     *s        -0.0148   -0.0000   -0.0000    0.0000   -0.0696   -0.7055
    68 C7     2px        0.1445   -0.0000   -0.0000   -0.0000    0.0788    0.7649
    69 C7     *px        0.1057    0.0000    0.0000   -0.0000    0.0072    0.3951
    70 C7     2py        0.0437   -0.0000   -0.0000    0.0000   -0.0402    0.0009
    71 C7     *py       -0.0228    0.0000    0.0000   -0.0000   -0.0117   -0.0979
    72 C7     2pz        0.0000    0.4102   -0.1920   -0.4264   -0.0000   -0.0000
    73 C7     *pz       -0.0000    0.2416   -0.1683   -0.2278   -0.0000    0.0000
    74 C7     *200      -0.0076    0.0000    0.0000   -0.0000    0.0039   -0.0014
    75 C7     *110      -0.0083   -0.0000    0.0000    0.0000    0.0021    0.0113
    76 C7     *101       0.0000    0.0025    0.0275    0.0179   -0.0000   -0.0000
    77 C7     *020       0.0103    0.0000    0.0000   -0.0000    0.0041    0.0400
    78 C7     *011       0.0000    0.0095    0.0124    0.0028   -0.0000   -0.0000
    79 C7     *002      -0.0004   -0.0000    0.0000    0.0000    0.0007    0.0085
    80 C8     1s        -0.0028   -0.0000   -0.0000    0.0000   -0.0284   -0.1090
    81 C8     2s         0.0062    0.0000    0.0000   -0.0000    0.0984    0.5198
    82 C8     *s        -0.0148   -0.0000    0.0000    0.0000    0.0696    0.7055
    83 C8     2px       -0.1445    0.0000   -0.0000   -0.0000    0.0788    0.7649
    84 C8     *px       -0.1057   -0.0000    0.0000    0.0000    0.0072    0.3951
    85 C8     2py        0.0437   -0.0000   -0.0000    0.0000    0.0402   -0.0009
    86 C8     *py       -0.0228    0.0000    0.0000   -0.0000    0.0117    0.0979
    87 C8     2pz       -0.0000   -0.4102   -0.1920    0.4264    0.0000    0.0000
    88 C8     *pz        0.0000   -0.2416   -0.1683    0.2278   -0.0000   -0.0000
    89 C8     *200      -0.0076    0.0000    0.0000   -0.0000   -0.0039    0.0014
    90 C8     *110       0.0083   -0.0000   -0.0000   -0.0000    0.0021    0.0113
    91 C8     *101       0.0000    0.0025   -0.0275    0.0179    0.0000   -0.0000
    92 C8     *020       0.0103    0.0000    0.0000   -0.0000   -0.0041   -0.0400
    93 C8     *011      -0.0000   -0.0095    0.0124   -0.0028    0.0000    0.0000
    94 C8     *002      -0.0004    0.0000    0.0000   -0.0000   -0.0007   -0.0085
    95 H9     1s         0.0493    0.0000    0.0000   -0.0000    0.0087    0.0247
    96 H9     *s         0.0433   -0.0000    0.0000   -0.0000    0.0162   -0.0067
    97 H10    1s         0.0493    0.0000    0.0000   -0.0000   -0.0087   -0.0247
    98 H10    *s         0.0433   -0.0000    0.0000    0.0000   -0.0162    0.0067
--

      Von Neumann Entropy (Root   1) =  1.70115


      Mulliken population analysis for root number:  1
      -----------------------------------------------


++    Molecular charges:
      ------------------

      Mulliken charges per centre and basis function type
      ---------------------------------------------------

                C1      C2      C3      C4      H5      H6      C7      C8      H9      H10   
      1s       1.9966  1.9966  1.9968  1.9968  0.5205  0.5205  1.9966  1.9966  0.5239  0.5239
      2s       0.6779  0.6779  0.6895  0.6895  0.0000  0.0000  0.6788  0.6788  0.0000  0.0000
      2px      0.6385  0.6385  0.6037  0.6037  0.0000  0.0000  0.7053  0.7053  0.0000  0.0000
      2pz      0.5708  0.5708  0.5571  0.5571  0.0000  0.0000  0.5597  0.5597  0.0000  0.0000
      2py      0.7737  0.7737  0.7835  0.7835  0.0000  0.0000  0.7480  0.7480  0.0000  0.0000
      *s       0.5271  0.5271  0.4746  0.4746  0.2557  0.2557  0.5105  0.5105  0.2593  0.2593
      *px      0.2721  0.2721  0.3541  0.3541  0.0000  0.0000  0.2332  0.2332  0.0000  0.0000
      *pz      0.4517  0.4517  0.3847  0.3847  0.0000  0.0000  0.4454  0.4454  0.0000  0.0000
      *py      0.2834  0.2834  0.0797  0.0797  0.0000  0.0000  0.2979  0.2979  0.0000  0.0000
      *200     0.0111  0.0111 -0.0043 -0.0043  0.0000  0.0000  0.0156  0.0156  0.0000  0.0000
      *110     0.0121  0.0121  0.0153  0.0153  0.0000  0.0000  0.0153  0.0153  0.0000  0.0000
      *101     0.0036  0.0036  0.0036  0.0036  0.0000  0.0000  0.0056  0.0056  0.0000  0.0000
      *020     0.0422  0.0422  0.0294  0.0294  0.0000  0.0000  0.0336  0.0336  0.0000  0.0000
      *011     0.0052  0.0052  0.0093  0.0093  0.0000  0.0000  0.0040  0.0040  0.0000  0.0000
      *002    -0.0181 -0.0181 -0.0155 -0.0155  0.0000  0.0000 -0.0183 -0.0183  0.0000  0.0000
      Total    6.2480  6.2480  5.9616  5.9616  0.7762  0.7762  6.2310  6.2310  0.7832  0.7832

      N-E     -0.2480 -0.2480  0.0384  0.0384  0.2238  0.2238 -0.2310 -0.2310  0.2168  0.2168

      Total electronic charge=   40.000000

      Total            charge=   -0.000000
--



      Expectation values of various properties for root number:  1
      -----------------------------------------------------------


++    Molecular properties:
      ---------------------

      Charge (e):
                      =   -0.0000
      Dipole Moment (Debye):
      Origin of the operator (Ang)=    0.0000    0.0000    0.0000
                   X=  2.9434E-12               Y=  7.7508E-02               Z=  4.4139E-14           Total=  7.7508E-02
      Quadrupole Moment (Debye*Ang):
      Origin of the operator (Ang)=    0.0000    0.0000    0.0000
                  XX= -3.6132E+01              XY=  4.8981E-12              XZ=  2.4018E-13              YY= -2.6549E+01
                  YZ=  1.0660E-13              ZZ= -3.7301E+01
      In traceless form (Debye*Ang)
                  XX= -4.2064E+00              XY=  7.3472E-12              XZ=  3.6027E-13              YY=  1.0167E+01
                  YZ=  1.5991E-13              ZZ= -5.9610E+00
--


      Input file to MOLDEN was generated!

      Average orbitals are written to the RASORB file
      Natural orbitals for root   1 are written to the RASORB.1 file
      Spin density orbitals for root   1 are written to the SPDORB.1 file

--- Stop Module: rasscf at Wed Jul 10 21:46:00 2024 /rc=_RC_ALL_IS_WELL_ ---
*** files: ts.rasscf.molden ts.RasOrb.1 ts.RasOrb ts.SpdOrb.1 xmldump
    saved to directory /home/kenya/molcas_test/exercise_1
--- Module rasscf spent 3 minutes 6 seconds ---

--- Start Module: alaska at Wed Jul 10 21:46:00 2024 ---

()()()()()()()()()()()()()()()()()()()()()()()()()()()()()()()()()()()()()()()()()()()()()()()()()()

                                              &ALASKA

                                   only a single process is used
                       available to each process: 2.0 GB of memory, 1 thread
                                            pid: 713746
()()()()()()()()()()()()()()()()()()()()()()()()()()()()()()()()()()()()()()()()()()()()()()()()()()


                     Threshold for contributions to the gradient: 1.000E-07


                    ********************************************
                    * Symmetry Adapted Cartesian Displacements *
                    ********************************************


           Irreducible representation : a  
           Basis function(s) of irrep: x, y, xy, Rz, z, xz, Ry, yz, Rx, I                                              

 Basis Label        Type   Center Phase
   1   C1           x         1     1
   2   C1           y         1     1
   3   C1           z         1     1
   4   C2           x         2     1
   5   C2           y         2     1
   6   C2           z         2     1
   7   C3           x         3     1
   8   C3           y         3     1
   9   C3           z         3     1
  10   C4           x         4     1
  11   C4           y         4     1
  12   C4           z         4     1
  13   H5           x         5     1
  14   H5           y         5     1
  15   H5           z         5     1
  16   H6           x         6     1
  17   H6           y         6     1
  18   H6           z         6     1
  19   C7           x         7     1
  20   C7           y         7     1
  21   C7           z         7     1
  22   C8           x         8     1
  23   C8           y         8     1
  24   C8           z         8     1
  25   H9           x         9     1
  26   H9           y         9     1
  27   H9           z         9     1
  28   H10          x        10     1
  29   H10          y        10     1
  30   H10          z        10     1

                     No automatic utilization of translational and rotational invariance of the energy is employed.

 Conventional ERI gradients!

 **************************************************
 *                                                *
 *              Molecular gradients               *
 *                                                *
 **************************************************

  Irreducible representation: a  
 ------------------------------------------------------------------------------------------
                              X                       Y                       Z
 ------------------------------------------------------------------------------------------
  C1                5.79767066295180E-02   -4.78815381051376E-02    2.02527375897353E-15
  C2               -5.79767066285508E-02   -4.78815381039830E-02   -2.75173575514778E-14
  C3               -4.92341199172426E-02    2.24631771733963E-02   -1.60305986121272E-14
  C4                4.92341199160613E-02    2.24631771759296E-02    2.22623866449408E-14
  H5                9.42438756944242E-03    3.62315861538542E-03    8.02278900273478E-15
  H6               -9.42438756876496E-03    3.62315861513496E-03   -2.87201103793899E-15
  C7                1.45840280367242E-02    2.43493721954859E-02    1.67146012418114E-14
  C8               -1.45840280375600E-02    2.43493721917911E-02   -7.24656103213855E-15
  H9               -5.02258587239401E-03   -2.55416987922708E-03   -1.23764867507168E-15
  H10               5.02258587280036E-03   -2.55416987889445E-03    5.87912626028449E-15
 ------------------------------------------------------------------------------------------

--- Stop Module: alaska at Wed Jul 10 21:46:10 2024 /rc=_RC_ALL_IS_WELL_ ---
*** files: xmldump
    saved to directory /home/kenya/molcas_test/exercise_1
--- Module alaska spent 10 seconds ---

--- Start Module: slapaf at Wed Jul 10 21:46:10 2024 ---

()()()()()()()()()()()()()()()()()()()()()()()()()()()()()()()()()()()()()()()()()()()()()()()()()()

                                              &SLAPAF

                                   only a single process is used
                       available to each process: 2.0 GB of memory, 1 thread
                                            pid: 713809
()()()()()()()()()()()()()()()()()()()()()()()()()()()()()()()()()()()()()()()()()()()()()()()()()()



++       Slapaf input parameters:
         ------------------------

 Maximum number of iterations:              2000
 Convergence test a la Schlegel.
 Convergence criterion on gradient/para.<=: 3.0E-04
 Convergence criterion on step/parameter<=: 3.0E-04
 Convergence criterion on energy change <=: 0.0E+00
 Parameters for step-restricted optimization
 Maximum step length (initial seed):       3.00E-01

 -RFO activated with parameters:
   Maximum number of data points used in RFO:      5
 -Constrained optimization.

 -Optimization for minimum.
  Optimization method: RS-RFO.

 -Initial Hessian guessed by Hessian Model Function (HMF).
  HMF augmented with weak interactions.

 -Hessian update method: Broyden-Fletcher-Goldfarb-Shanno
  Maximum number of points in Hessian update:  5

 -Relaxation will be done on non-redundant internal coordinates, based on
  force constant weighted redundant internal coordinates.

--

 ******************************************
 * Statistics of the internal coordinates *
 ******************************************
 Translations and Rotations:         0
 Bonds                     :        10
 Angles                    :        14
 Torsions                  :        16
 Out-of-plane angles       :         4


++ Constraints section
                                  CONSTRAINTS

********************************************************************************
A = BOND C1 C2
VALUES
A = 1.9 ANGSTROM
********************************************************************************


 *************************************************************
 * Values of the primitive constraints                       *
 *************************************************************
 A        : Bond Length=  1.592409 / Angstrom  3.009216 / bohr


 *******************************************
 * Values of the constraints   / au or rad *
 *******************************************
   Label        C         C0
 Cns001      3.009216  3.590480

--


**********************************************************************************************************************
*                                    Energy Statistics for Geometry Optimization                                     *
**********************************************************************************************************************
                       Energy     Grad      Grad              Step                 Estimated   Geom       Hessian     
Iter      Energy       Change     Norm      Max    Element    Max     Element     Final Energy Update Update   Index  
  1   -229.51991952  0.00000000 0.073622 -0.047674 nrc021   0.136393* nrc018     -229.52382198 RS-RFO  None      0    

       +----------------------------------+----------------------------------+
       +    Cartesian Displacements       +    Gradient in internals         +
       +  Value      Threshold Converged? +  Value      Threshold Converged? +
 +-----+----------------------------------+----------------------------------+
 + RMS + 8.7585E-02  1.2000E-03     No    + 2.4541E-02  3.0000E-04     No    +
 +-----+----------------------------------+----------------------------------+
 + Max + 1.6732E-01  1.8000E-03     No    + 4.7674E-02  4.5000E-04     No    +
 +-----+----------------------------------+----------------------------------+

 Convergence not reached yet!

*****************************************************************************************************************
*****************************************************************************************************************

++ Geometry section

********************************************************************************
  Geometrical information of the new structure
********************************************************************************


 *********************************************************
 * Nuclear coordinates for the next iteration / Bohr     *
 *********************************************************
  ATOM              X               Y               Z     
  C1               1.577406        2.277733        0.000000
  C2              -1.577406        2.277733        0.000000
  C3               2.580950       -0.006548        0.000000
  C4              -2.580950       -0.006548        0.000000
  H5              -2.391920        4.116495        0.000000
  H6               2.391920        4.116495        0.000000
  C7               1.340005       -2.271025        0.000000
  C8              -1.340005       -2.271025        0.000000
  H9               2.269763       -4.073716        0.000000
  H10             -2.269763       -4.073716        0.000000


 *********************************************************
 * Nuclear coordinates for the next iteration / Angstrom *
 *********************************************************
  ATOM              X               Y               Z     
  C1               0.834727        1.205324        0.000000
  C2              -0.834727        1.205324        0.000000
  C3               1.365780       -0.003465        0.000000
  C4              -1.365780       -0.003465        0.000000
  H5              -1.265749        2.178355        0.000000
  H6               1.265749        2.178355        0.000000
  C7               0.709100       -1.201775        0.000000
  C8              -0.709100       -1.201775        0.000000
  H9               1.201107       -2.155718        0.000000
  H10             -1.201107       -2.155718        0.000000


                    *************************************** 
                    *    InterNuclear Distances / Bohr    * 
                    *************************************** 

               1 C1            2 C2            3 C3            4 C4            5 H5    
    1 C1       0.000000
    2 C2       3.154811        0.000000
    3 C3       2.495003        4.744455        0.000000
    4 C4       4.744455        2.495003        5.161899        0.000000
    5 H5       4.374539        2.011089        6.459792        4.127374        0.000000
    6 H6       2.011089        4.374539        4.127374        6.459792        4.783839
    7 C7       4.554949        5.403932        2.582208        4.527884        7.397815
    8 C8       5.403932        4.554949        4.527884        2.582208        6.473557
    9 H9       6.389074        7.425740        4.079056        6.330187        9.423951
   10 H10      7.425740        6.389074        6.330187        4.079056        8.191122

               6 H6            7 C7            8 C8            9 H9           10 H10   
    6 H6       0.000000
    7 C7       6.473557        0.000000
    8 C8       7.397815        2.680009        0.000000
    9 H9       8.191122        2.028336        4.034863        0.000000
   10 H10      9.423951        4.034863        2.028336        4.539526        0.000000

                    ******************************************* 
                    *    InterNuclear Distances / Angstrom    * 
                    ******************************************* 

               1 C1            2 C2            3 C3            4 C4            5 H5    
    1 C1       0.000000
    2 C2       1.669454        0.000000
    3 C3       1.320299        2.510658        0.000000
    4 C4       2.510658        1.320299        2.731559        0.000000
    5 H5       2.314906        1.064223        3.418375        2.184112        0.000000
    6 H6       1.064223        2.314906        2.184112        3.418375        2.531499
    7 C7       2.410375        2.859638        1.366446        2.396053        3.914755
    8 C8       2.859638        2.410375        2.396053        1.366446        3.425659
    9 H9       3.380952        3.929532        2.158543        3.349791        4.986940
   10 H10      3.929532        3.380952        3.349791        2.158543        4.334555

               6 H6            7 C7            8 C8            9 H9           10 H10   
    6 H6       0.000000
    7 C7       3.425659        0.000000
    8 C8       3.914755        1.418200        0.000000
    9 H9       4.334555        1.073349        2.135158        0.000000
   10 H10      4.986940        2.135158        1.073349        2.402214        0.000000

                    ************************************** 
                    *    Valence Bond Angles / Degree    * 
                    ************************************** 
                          Atom centers                 Phi
                      3 C3       1 C1       6 H6       132.39
                      4 C4       2 C2       5 H5       132.39
                      1 C1       3 C3       7 C7       127.56
                      2 C2       4 C4       8 C8       127.56
                      3 C3       7 C7       8 C8       118.72
                      3 C3       7 C7       9 H9       123.99
                      8 C8       7 C7       9 H9       117.28
                      4 C4       8 C8       7 C7       118.72
                      4 C4       8 C8      10 H10      123.99
                      7 C7       8 C8      10 H10      117.28

           ***************************************************************
           *              Valence Dihedral Angles / Degree               *
           ***************************************************************
                    Atom centers                       Phi1     Phi2     Theta 
           6 H6       1 C1       3 C3       7 C7        132.39   127.56  -180.00
           5 H5       2 C2       4 C4       8 C8        132.39   127.56   180.00
           1 C1       3 C3       7 C7       8 C8        127.56   118.72    -0.00
           1 C1       3 C3       7 C7       9 H9        127.56   123.99  -180.00
           2 C2       4 C4       8 C8       7 C7        127.56   118.72    -0.00
           2 C2       4 C4       8 C8      10 H10       127.56   123.99   180.00
           3 C3       7 C7       8 C8       4 C4        118.72   118.72    -0.00
           3 C3       7 C7       8 C8      10 H10       118.72   117.28  -180.00
           9 H9       7 C7       8 C8      10 H10       117.28   117.28    -0.00
           4 C4       8 C8       7 C7       9 H9        118.72   117.28  -180.00
--
--- Stop Module: slapaf at Wed Jul 10 21:46:10 2024 /rc=_RC_CONTINUE_LOOP_ ---
*** files: ts.geo.molden ts.structure ts.Opt.xyz xmldump
    saved to directory /home/kenya/molcas_test/exercise_1

>>> END DO

--- Start Module: seward at Wed Jul 10 21:46:10 2024 ---
--- Stop Module: seward at Wed Jul 10 21:46:12 2024 /rc=_RC_ALL_IS_WELL_ ---
*** files: xmldump
    saved to directory /home/kenya/molcas_test/exercise_1
--- Module seward spent 2 seconds ---

--- Start Module: rasscf at Wed Jul 10 21:46:12 2024 ---
--- Stop Module: rasscf at Wed Jul 10 21:50:38 2024 /rc=_RC_ALL_IS_WELL_ ---
*** files: ts.rasscf.molden ts.RasOrb.1 ts.RasOrb ts.SpdOrb.1 xmldump
    saved to directory /home/kenya/molcas_test/exercise_1
--- Module rasscf spent 4 minutes 26 seconds ---

--- Start Module: alaska at Wed Jul 10 21:50:38 2024 ---
--- Stop Module: alaska at Wed Jul 10 21:50:48 2024 /rc=_RC_ALL_IS_WELL_ ---
*** files: xmldump
    saved to directory /home/kenya/molcas_test/exercise_1
--- Module alaska spent 10 seconds ---

--- Start Module: slapaf at Wed Jul 10 21:50:48 2024 ---

++ Constraints section
                                  CONSTRAINTS

********************************************************************************
A = BOND C1 C2
VALUES
A = 1.9 ANGSTROM
********************************************************************************


 *************************************************************
 * Values of the primitive constraints                       *
 *************************************************************
 A        : Bond Length=  1.669454 / Angstrom  3.154811 / bohr


 *******************************************
 * Values of the constraints   / au or rad *
 *******************************************
   Label        C         C0
 Cns001      3.154811  3.590480

--


**********************************************************************************************************************
*                                    Energy Statistics for Geometry Optimization                                     *
**********************************************************************************************************************
                       Energy     Grad      Grad              Step                 Estimated   Geom       Hessian     
Iter      Energy       Change     Norm      Max    Element    Max     Element     Final Energy Update Update   Index  
  1   -229.51991952  0.00000000 0.073622 -0.047674 nrc021   0.136393* nrc018     -229.52382198 RS-RFO  None      0    
[...]


                        19        20        21        22        23        24

            Freq.    1027.07   1059.69   1165.39   1224.50   1447.83   1499.99                                               


                        25        26        27        28        29        30

            Freq.    1670.43   1849.59   3389.12   3405.74   3508.79   3514.50                                               


 Masses:
 =======
  12  12  12  14   1   1  12  12   1   1


 Frequencies:
 ============
                         1         2         3         4         5         6

            Freq.    i780.67     i2.64      0.04      0.05      0.21     30.20                                               


                         7         8         9        10        11        12

            Freq.      42.20    355.98    414.08    496.53    551.95    589.25                                               


                        13        14        15        16        17        18

            Freq.     625.80    679.92    738.06    818.95    898.02    972.94                                               


                        19        20        21        22        23        24

            Freq.    1022.37   1059.67   1162.37   1224.19   1446.94   1498.86                                               


                        25        26        27        28        29        30

            Freq.    1647.74   1836.79   3389.12   3405.73   3508.69   3514.42                                               


 Masses:
 =======
  12  12  12  12   2   1  12  12   1   1


 Frequencies:
 ============
                         1         2         3         4         5         6

            Freq.    i779.01     i2.57      0.04      0.05      0.21     29.97                                               


                         7         8         9        10        11        12

            Freq.      42.76    337.20    423.16    463.11    492.21    594.39                                               


                        13        14        15        16        17        18

            Freq.     635.56    639.48    703.53    737.00    839.27    972.70                                               


                        19        20        21        22        23        24

            Freq.    1005.91   1031.69   1151.16   1223.00   1448.87   1499.91                                               


                        25        26        27        28        29        30

            Freq.    1662.30   1849.74   2621.40   3389.13   3405.74   3511.75                                               


 Masses:
 =======
  12  12  12  12   3   1  12  12   1   1


 Frequencies:
 ============
                         1         2         3         4         5         6

            Freq.    i777.68     i2.51      0.04      0.05      0.21     29.46                                               


                         7         8         9        10        11        12

            Freq.      42.43    312.84    422.91    428.44    481.86    583.54                                               


                        13        14        15        16        17        18

            Freq.     593.95    633.77    654.44    736.65    838.25    972.64                                               


                        19        20        21        22        23        24

            Freq.     995.05   1029.70   1145.62   1221.21   1448.87   1497.50                                               


                        25        26        27        28        29        30

            Freq.    1625.08   1827.50   2287.21   3389.13   3405.74   3511.74                                               


 Masses:
 =======
  12  12  12  12   1   2  12  12   1   1


 Frequencies:
 ============
                         1         2         3         4         5         6

            Freq.    i779.01     i2.57      0.04      0.05      0.21     29.97                                               


                         7         8         9        10        11        12

            Freq.      42.76    337.20    423.16    463.11    492.21    594.39                                               


                        13        14        15        16        17        18

            Freq.     635.56    639.48    703.53    737.00    839.27    972.70                                               


                        19        20        21        22        23        24

            Freq.    1005.91   1031.69   1151.16   1223.00   1448.87   1499.91                                               


                        25        26        27        28        29        30

            Freq.    1662.30   1849.74   2621.40   3389.13   3405.74   3511.75                                               


 Masses:
 =======
  12  12  12  12   1   3  12  12   1   1


 Frequencies:
 ============
                         1         2         3         4         5         6

            Freq.    i777.68     i2.51      0.04      0.05      0.21     29.46                                               


                         7         8         9        10        11        12

            Freq.      42.43    312.84    422.91    428.44    481.86    583.54                                               


                        13        14        15        16        17        18

            Freq.     593.95    633.77    654.44    736.65    838.25    972.64                                               


                        19        20        21        22        23        24

            Freq.     995.05   1029.70   1145.62   1221.21   1448.87   1497.50                                               


                        25        26        27        28        29        30

            Freq.    1625.08   1827.50   2287.21   3389.13   3405.74   3511.74                                               


 Masses:
 =======
  12  12  12  12   1   1  13  12   1   1


 Frequencies:
 ============
                         1         2         3         4         5         6

            Freq.    i780.67     i2.62      0.04      0.05      0.21     30.35                                               


                         7         8         9        10        11        12

            Freq.      43.01    355.66    422.89    497.27    551.86    591.25                                               


                        13        14        15        16        17        18

            Freq.     642.52    680.16    737.57    826.66    899.33    969.69                                               


                        19        20        21        22        23        24

            Freq.    1021.70   1056.43   1165.63   1217.75   1429.55   1493.37                                               


                        25        26        27        28        29        30

            Freq.    1691.89   1866.58   3382.34   3401.80   3508.90   3514.60                                               


 Masses:
 =======
  12  12  12  12   1   1  14  12   1   1


 Frequencies:
 ============
                         1         2         3         4         5         6

            Freq.    i780.58     i2.60      0.04      0.05      0.21     30.19                                               


                         7         8         9        10        11        12

            Freq.      42.90    354.19    422.62    494.98    550.87    586.60                                               


                        13        14        15        16        17        18

            Freq.     640.54    680.13    735.50    820.03    899.30    967.02                                               


                        19        20        21        22        23        24

            Freq.    1011.51   1054.19   1162.40   1210.67   1412.42   1488.37                                               


                        25        26        27        28        29        30

            Freq.    1691.43   1865.04   3374.82   3400.23   3508.90   3514.60                                               


 Masses:
 =======
  12  12  12  12   1   1  12  13   1   1


 Frequencies:
 ============
                         1         2         3         4         5         6

            Freq.    i780.67     i2.62      0.04      0.05      0.21     30.35                                               


                         7         8         9        10        11        12

            Freq.      43.01    355.66    422.89    497.27    551.86    591.25                                               


                        13        14        15        16        17        18

            Freq.     642.52    680.16    737.57    826.66    899.33    969.69                                               


                        19        20        21        22        23        24

            Freq.    1021.70   1056.43   1165.63   1217.75   1429.55   1493.37                                               


                        25        26        27        28        29        30

            Freq.    1691.89   1866.58   3382.34   3401.80   3508.90   3514.60                                               


 Masses:
 =======
  12  12  12  12   1   1  12  14   1   1


 Frequencies:
 ============
                         1         2         3         4         5         6

            Freq.    i780.58     i2.60      0.04      0.05      0.21     30.19                                               


                         7         8         9        10        11        12

            Freq.      42.90    354.19    422.62    494.98    550.87    586.60                                               


                        13        14        15        16        17        18

            Freq.     640.54    680.13    735.50    820.03    899.30    967.02                                               


                        19        20        21        22        23        24

            Freq.    1011.51   1054.19   1162.40   1210.67   1412.42   1488.37                                               


                        25        26        27        28        29        30

            Freq.    1691.43   1865.04   3374.82   3400.23   3508.90   3514.60                                               


 Masses:
 =======
  12  12  12  12   1   1  12  12   2   1


 Frequencies:
 ============
                         1         2         3         4         5         6

            Freq.    i780.76     i2.58      0.04      0.05      0.21     30.01                                               


                         7         8         9        10        11        12

            Freq.      42.78    351.23    400.48    497.00    546.16    578.97                                               


                        13        14        15        16        17        18

            Freq.     639.91    661.63    680.65    822.22    897.25    897.57                                               


                        19        20        21        22        23        24

            Freq.     924.66   1021.31   1080.62   1184.54   1382.68   1467.48                                               


                        25        26        27        28        29        30

            Freq.    1690.88   1867.48   2507.72   3397.51   3508.90   3514.60                                               


 Masses:
 =======
  12  12  12  12   1   1  12  12   3   1


 Frequencies:
 ============
                         1         2         3         4         5         6

            Freq.    i780.75     i2.52      0.04      0.05      0.21     29.53                                               


                         7         8         9        10        11        12

            Freq.      42.46    339.91    384.47    494.24    534.29    567.83                                               


                        13        14        15        16        17        18

            Freq.     632.07    639.82    680.44    774.01    833.36    883.20                                               


                        19        20        21        22        23        24

            Freq.     900.16   1004.46   1074.83   1181.67   1371.66   1460.27                                               


                        25        26        27        28        29        30

            Freq.    1689.38   1865.22   2144.68   3397.49   3508.90   3514.60                                               


 Masses:
 =======
  12  12  12  12   1   1  12  12   1   2


 Frequencies:
 ============
                         1         2         3         4         5         6

            Freq.    i780.76     i2.58      0.04      0.05      0.21     30.01                                               


                         7         8         9        10        11        12

            Freq.      42.78    351.23    400.48    497.00    546.16    578.97                                               


                        13        14        15        16        17        18

            Freq.     639.91    661.63    680.65    822.22    897.25    897.57                                               


                        19        20        21        22        23        24

            Freq.     924.66   1021.31   1080.62   1184.54   1382.68   1467.48                                               


                        25        26        27        28        29        30

            Freq.    1690.88   1867.48   2507.72   3397.51   3508.90   3514.60                                               


 Masses:
 =======
  12  12  12  12   1   1  12  12   1   3


 Frequencies:
 ============
                         1         2         3         4         5         6

            Freq.    i780.75     i2.52      0.04      0.05      0.21     29.53                                               


                         7         8         9        10        11        12

            Freq.      42.46    339.91    384.47    494.24    534.29    567.83                                               


                        13        14        15        16        17        18

            Freq.     632.07    639.82    680.44    774.01    833.36    883.20                                               


                        19        20        21        22        23        24

            Freq.     900.16   1004.46   1074.83   1181.67   1371.66   1460.27                                               


                        25        26        27        28        29        30

            Freq.    1689.38   1865.22   2144.68   3397.49   3508.90   3514.60                                               



  Full substitutions:
  -----------------------

 Masses:
 =======
  12  12  12  12   2   2  12  12   2   2


 Frequencies:
 ============
                         1         2         3         4         5         6

            Freq.    i777.21     i2.40      0.04      0.05      0.21     28.52                                               


                         7         8         9        10        11        12

            Freq.      41.62    317.49    379.11    422.06    481.36    515.67                                               


                        13        14        15        16        17        18

            Freq.     583.64    609.86    611.80    668.60    744.38    765.55                                               


                        19        20        21        22        23        24

            Freq.     874.27    897.17    953.95   1015.05   1325.01   1389.73                                               


                        25        26        27        28        29        30

            Freq.    1632.27   1823.35   2498.51   2516.91   2619.58   2623.10                                               


 Masses:
 =======
  12  12  12  12   3   3  12  12   3   3


 Frequencies:
 ============
                         1         2         3         4         5         6

            Freq.    i774.53     i2.22      0.04      0.05      0.20     26.86                                               


                         7         8         9        10        11        12

            Freq.      40.25    283.17    343.15    367.48    457.11    462.97                                               


                        13        14        15        16        17        18

            Freq.     519.22    551.38    575.76    622.92    650.08    707.72                                               


                        19        20        21        22        23        24

            Freq.     762.43    826.96    840.46    974.72   1275.50   1375.06                                               


                        25        26        27        28        29        30

            Freq.    1573.02   1753.95   2134.16   2153.17   2274.97   2298.16                                               


 Masses:
 =======
  13  13  13  13   1   1  13  13   1   1


 Frequencies:
 ============
                         1         2         3         4         5         6

            Freq.    i750.37     i2.56      0.04      0.05      0.21     29.49                                               


                         7         8         9        10        11        12

            Freq.      41.56    346.03    409.92    481.25    548.70    576.10                                               


                        13        14        15        16        17        18

            Freq.     620.20    673.73    731.81    803.94    896.35    966.38                                               


                        19        20        21        22        23        24

            Freq.     995.88   1046.27   1144.73   1205.50   1411.86   1477.89                                               


                        25        26        27        28        29        30

            Freq.    1632.00   1797.67   3378.76   3394.63   3495.73   3501.67                                               


 Masses:
 =======
  14  14  14  14   1   1  14  14   1   1


 Frequencies:
 ============
                         1         2         3         4         5         6

            Freq.    i723.35     i2.48      0.03      0.05      0.20     28.55                                               


                         7         8         9        10        11        12

            Freq.      40.15    335.80    397.76    464.85    545.16    557.26                                               


                        13        14        15        16        17        18

            Freq.     598.47    668.58    724.95    777.25    893.04    960.97                                               


                        19        20        21        22        23        24

            Freq.     963.30   1031.88   1124.01   1183.44   1383.99   1459.27                                               


                        25        26        27        28        29        30

            Freq.    1578.44   1734.45   3369.99   3385.22   3484.69   3490.80                                               


--


      The response parameters are written to the file RESP.
--- Stop Module: mclr at Thu Jul 11 01:27:05 2024 /rc=_RC_ALL_IS_WELL_ ---
*** files: ts.freq.molden ts.UnSym xmldump
    saved to directory /home/kenya/molcas_test/exercise_1
--- Module mclr spent 2 hours 57 minutes 54 seconds ---

.##################.
.# Happy landing! #.
.##################.

    Timing: Wall=13453.11 User=13415.20 System=34.90
