   This run of MOLCAS is using the pymolcas driver

                             OPE
                             OPE          NMOL  CASOP  ENMOLC A   SO
                 OPE        NMOLC        AS  OP EN  MO LC     AS  OP
                OPENM       OL CA        SO  PE NM  OL CA     SOP EN
                OP EN      MO   LC       AS  OP ENMOL  CASO   PENMOL
                OP  EN     MO   LC       AS  OP EN     MO     LC ASO
               OP   E  NMOL  C  AS       OP  EN MO     LC     AS  OP
               OP  E   NMO   LC AS        OPEN  MO     LCASOP EN   M
               O  PEN   MO  LCA  SO
            OPE   NMO   L   CAS    OP
        OPENMOL  CASOP     ENMOL   CASOPE
     OPENMOLCA   SOPENMOLCASOPEN   MOLCASOPE
    OPENMOLCAS   OP           EN   MOL    CAS
    OPENMOLCAS       OP  ENM        O     LCA
    OPENMOLCAS    OPEN  MOLCASO     P  E  NMO
    OPENMOLCAS     OP               E  N  MOL
    OPENMOLCA   SO           PENM   O  L  CAS    OPEN    MO    LCAS
    OPENMOLCA   SOP           ENM   O  L  CAS   OP  EN  MOLC  AS   O
    OPENMOLCA   SOPE           NM      O  LCA   S      OP  EN MO
    OPENMOLC                AS         O  PEN   M      OL  CA  SOPE
    OPENMO        LCASOPE  NMOL        C  ASO   P      ENMOLC     AS
    OPE     NMO      LCA  SO     P     E   NM   OL  CA SO  PE N   MO
          OPENMOLCA            SOPE   NMO        LCAS  O    P  ENMO
     OPENMOLCASOPENMOLCASOPENMOLCASOPENMOLCA
        OPENMOLCASOPENMOLCASOPENMOLCASOPE
            OPENMOLCASOPENMOLCASOPENM
               OPENMOLCASOPENMOLCA        version: 24.02
                   OPENMOLCASO
                       OPE                tag: 428-g03afa2e9a

 OpenMolcas is free software; you can redistribute it and/or modify it
 under the terms of the GNU Lesser General Public License version 2.1.
 OpenMolcas is distributed in the hope that it will be useful, but it
 is provided "as is" and without any express or implied warranties.
 For more details see the full text of the license in the file
 LICENSE or in <http://www.gnu.org/licenses/>.

                 Copyright (C) The OpenMolcas Authors
           For the author list and the recommended citation,
                   consult the file CONTRIBUTORS.md

           *************************************************
           * pymolcas version py2.28                       *
           *   build c4a6d18ded8cb6cad61d2372a9abd97c      *
           *   (after the EMIL interpreter by V. Veryazov) *
           *************************************************

configuration info
------------------
Host name: DESKTOP-ET1S6F4 (Linux)
C Compiler ID: GNU
C flags: -std=gnu99 -fopenmp
Fortran Compiler ID: GNU
Fortran flags: -fno-aggressive-loop-optimizations -cpp -fdefault-integer-8 -fopenmp
Definitions: _WARNING_WORKAROUND_;_MOLCAS_;_I8_;_LINUX_
Parallel: OFF (GA=OFF)


   ----------------------------------------------------------------------
  |
  |           Project: ts
  |    Submitted from: /home/kenya/molcas_test/exercise_1
  |      Scratch area: /tmp/ts
  |   Save outputs to: /home/kenya/molcas_test/exercise_1
  |            Molcas: /home/kenya/OpenMolcas/builds/gnu_dev_omp
  |
  | Scratch area is NOT empty
  |
  |    MOLCAS_DRIVER = /home/kenya/OpenMolcas/builds/gnu_dev_omp/pymolcas
  |    MOLCAS_NPROCS = 1
  |    MOLCAS_SOURCE = /home/kenya/OpenMolcas
  | MOLCAS_STRUCTURE = 0
  |
   ----------------------------------------------------------------------

++ ---------   Input file   ---------

&GATEWAY
Coord = ts.Opt.xyz
  Basis = 6-31G*
  Group = Full
  NoCD

>>> DO WHILE

  &SEWARD

  &SCF

  &ALASKA

  &SLAPAF

>>> END DO

-- ----------------------------------

--- Start Module: gateway at Sun Jul  7 15:33:15 2024 ---

()()()()()()()()()()()()()()()()()()()()()()()()()()()()()()()()()()()()()()()()()()()()()()()()()()

                                              &GATEWAY

                                   only a single process is used
                       available to each process: 2.0 GB of memory, 1 thread
                                            pid: 402819
()()()()()()()()()()()()()()()()()()()()()()()()()()()()()()()()()()()()()()()()()()()()()()()()()()

      Found SYMMETRY generators: xz z

++    Symmetry information:
      ---------------------

                    --- Group Generators ---
                    Rotation around the y-axis  
                    Reflection in the xy-plane  

                    Character Table for C2v

                             E   C2(y) s(xy) s(yz)
                    a1       1     1     1     1  y
                    b1       1    -1     1    -1  x, xy, Rz
                    a2       1     1    -1    -1  xz, Ry, I
                    b2       1    -1    -1     1  z, yz, Rx
--


++    Basis set information:
      ----------------------


      Basis set label: C.6-31G**....

      Electronic valence basis set:
      ------------------
      Associated Effective Charge   6.000000 au
      Associated Actual Charge      6.000000 au
      Nuclear Model: Point charge

      Shell  nPrim  nBasis  Cartesian Spherical Contaminant
         s      10       3        X                  
         p       4       2        X                  
         d       1       1        X                  


      Basis set label: H.6-31G....

      Electronic valence basis set:
      ------------------
      Associated Effective Charge   1.000000 au
      Associated Actual Charge      1.000000 au
      Nuclear Model: Point charge

      Shell  nPrim  nBasis  Cartesian Spherical Contaminant
         s       4       2        X                  


      Basis set label: C.6-31G**....

      Electronic valence basis set:
      ------------------
      Associated Effective Charge   6.000000 au
      Associated Actual Charge      6.000000 au
      Nuclear Model: Point charge

      Shell  nPrim  nBasis  Cartesian Spherical Contaminant
         s      10       3        X                  
         p       4       2        X                  
         d       1       1        X                  


      Basis set label: H.6-31G....

      Electronic valence basis set:
      ------------------
      Associated Effective Charge   1.000000 au
      Associated Actual Charge      1.000000 au
      Nuclear Model: Point charge

      Shell  nPrim  nBasis  Cartesian Spherical Contaminant
         s       4       2        X                  
--


++    Molecular structure info:
      -------------------------

                    ************************************************ 
                    **** Cartesian Coordinates / Bohr, Angstrom **** 
                    ************************************************ 

     Center  Label                x              y              z                     x              y              z
        1      C1               1.504611       2.235585       0.000000              0.796206       1.183021       0.000000
        2      C1              -1.504611       2.235585       0.000000             -0.796206       1.183021       0.000000
        3      C2               2.539090       0.018708       0.000000              1.343629       0.009900       0.000000
        4      C2              -2.539090       0.018708       0.000000             -1.343629       0.009900       0.000000
        5      H3              -2.224793       4.124736       0.000000             -1.177310       2.182716       0.000000
        6      H3               2.224793       4.124736       0.000000              1.177310       2.182716       0.000000
        7      C4               1.351871      -2.258192       0.000000              0.715379      -1.194984       0.000000
        8      C4              -1.351871      -2.258192       0.000000             -0.715379      -1.194984       0.000000
        9      H5               2.245859      -4.077899       0.000000              1.188458      -2.157931       0.000000
       10      H5              -2.245859      -4.077899       0.000000             -1.188458      -2.157931       0.000000

                    *************************************** 
                    *    InterNuclear Distances / Bohr    * 
                    *************************************** 

               1 C1            2 C1            3 C2            4 C2            5 H3            6 H3    
    1 C1       0.000000
    2 C1       3.009221        0.000000
    3 C2       2.446363        4.611514        0.000000
    4 C2       4.611514        2.446363        5.078181        0.000000
    5 H3       4.180592        2.021770        6.289201        4.118039        0.000000
    6 H3       2.021770        4.180592        4.118039        6.289201        4.449587        0.000000
    7 C4       4.496372        5.324802        2.567832        4.508198        7.316713        6.442341
    8 C4       5.324802        4.496372        4.508198        2.567832        6.442341        7.316713
    9 H5       6.356849        7.343440        4.107089        6.299042        9.341839        8.202662
   10 H5       7.343440        6.356849        6.299042        4.107089        8.202662        9.341839

               7 C4            8 C4            9 H5           10 H5    
    7 C4       0.000000
    8 C4       2.703742        0.000000
    9 H5       2.027449        4.031749        0.000000
   10 H5       4.031749        2.027449        4.491719        0.000000

                    ******************************************* 
                    *    InterNuclear Distances / Angstrom    * 
                    ******************************************* 

               1 C1            2 C1            3 C2            4 C2            5 H3            6 H3    
    1 C1       0.000000
    2 C1       1.592411        0.000000
    3 C2       1.294559        2.440308        0.000000
    4 C2       2.440308        1.294559        2.687257        0.000000
    5 H3       2.212274        1.069875        3.328102        2.179172        0.000000
    6 H3       1.069875        2.212274        2.179172        3.328102        2.354620        0.000000
    7 C4       2.379377        2.817764        1.358838        2.385636        3.871838        3.409140
    8 C4       2.817764        2.379377        2.385636        1.358838        3.409140        3.871838
    9 H5       3.363900        3.885981        2.173378        3.333310        4.943488        4.340662
   10 H5       3.885981        3.363900        3.333310        2.173378        4.340662        4.943488

               7 C4            8 C4            9 H5           10 H5    
    7 C4       0.000000
    8 C4       1.430759        0.000000
    9 H5       1.072880        2.133510        0.000000
   10 H5       2.133510        1.072880        2.376915        0.000000

                    ************************************** 
                    *    Valence Bond Angles / Degree    * 
                    ************************************** 
                          Atom centers                 Phi
                      3 C2       1 C1       6 H3       134.12
                      4 C2       2 C1       5 H3       134.12
                      1 C1       3 C2       7 C4       127.45
                      2 C1       4 C2       8 C4       127.45
                      3 C2       7 C4       8 C4       117.54
                      3 C2       7 C4       9 H5       126.30
                      8 C4       7 C4       9 H5       116.16
                      4 C2       8 C4       7 C4       117.54
                      4 C2       8 C4      10 H5       126.30
                      7 C4       8 C4      10 H5       116.16

           ***************************************************************
           *              Valence Dihedral Angles / Degree               *
           ***************************************************************
                    Atom centers                       Phi1     Phi2     Theta 
           6 H3       1 C1       3 C2       7 C4        134.12   127.45  -180.00
           5 H3       2 C1       4 C2       8 C4        134.12   127.45  -180.00
           1 C1       3 C2       7 C4       8 C4        127.45   117.54    -0.00
           1 C1       3 C2       7 C4       9 H5        127.45   126.30  -180.00
           2 C1       4 C2       8 C4       7 C4        127.45   117.54     0.00
           2 C1       4 C2       8 C4      10 H5        127.45   126.30  -180.00
           3 C2       7 C4       8 C4       4 C2        117.54   117.54    -0.00
           3 C2       7 C4       8 C4      10 H5        117.54   116.16  -180.00
           9 H5       7 C4       8 C4      10 H5        116.16   116.16    -0.00
           4 C2       8 C4       7 C4       9 H5        117.54   116.16  -180.00
--


            Nuclear Potential Energy            186.23615787 au

--- Stop Module: gateway at Sun Jul  7 15:33:15 2024 /rc=_RC_ALL_IS_WELL_ ---
*** files: xmldump
    saved to directory /home/kenya/molcas_test/exercise_1

--- Start Module: seward at Sun Jul  7 15:33:15 2024 ---

()()()()()()()()()()()()()()()()()()()()()()()()()()()()()()()()()()()()()()()()()()()()()()()()()()

                                              &SEWARD

                                   only a single process is used
                       available to each process: 2.0 GB of memory, 1 thread
                                            pid: 402823
()()()()()()()()()()()()()()()()()()()()()()()()()()()()()()()()()()()()()()()()()()()()()()()()()()

               SEWARD will generate:
                  Multipole Moment integrals up to order  2
                  Kinetic Energy integrals
                  Nuclear Attraction integrals (point charge)
                  One-Electron Hamiltonian integrals
                  Velocity integrals
                  Orbital angular momentum around ( 0.0000  0.0000  0.0000 )
                  Velocity quadrupole around ( 0.0000  0.0000  0.0000 )
                  Two-Electron Repulsion integrals

                   Integrals are discarded if absolute value <: 1.00E-14
                   Integral cutoff threshold is set to       <: 1.00E-16

                    Unitary symmetry adaptation


            Nuclear Potential Energy            186.23615787 au


      Basis set specifications :
      Symmetry species         a1   b1   a2   b2 
      Basis functions           37   37   12   12


      Input file to MOLDEN was generated!

--- Stop Module: seward at Sun Jul  7 15:33:17 2024 /rc=_RC_ALL_IS_WELL_ ---
*** files: ts.GssOrb ts.guessorb.molden xmldump
    saved to directory /home/kenya/molcas_test/exercise_1
--- Module seward spent 1 second ---

--- Start Module: scf at Sun Jul  7 15:33:17 2024 ---

()()()()()()()()()()()()()()()()()()()()()()()()()()()()()()()()()()()()()()()()()()()()()()()()()()

                                                &SCF

                                   only a single process is used
                       available to each process: 2.0 GB of memory, 1 thread
                                            pid: 402866
()()()()()()()()()()()()()()()()()()()()()()()()()()()()()()()()()()()()()()()()()()()()()()()()()()

++    Input section:
      --------------

      Header of the integral files:
      
       Integrals generated by Gateway/Seward, Sun Jul  7 15:33:16 2024


      Cartesian coordinates in Angstrom:
      -----------------------------------------------------
      No.  Label        X            Y            Z        
      -----------------------------------------------------
       1   C1         0.79620567   1.18302066   0.00000000
       2   C2         1.34362870   0.00990000   0.00000000
       3   H3        -1.17731001   2.18271626   0.00000000
       4   C4         0.71537932  -1.19498353   0.00000000
       5   H5         1.18845758  -2.15793135   0.00000000
       6   C1        -0.79620567   1.18302066   0.00000000
       7   C2        -1.34362870   0.00990000   0.00000000
       8   H3         1.17731001   2.18271626   0.00000000
       9   C4        -0.71537932  -1.19498353   0.00000000
      10   H5        -1.18845758  -2.15793135   0.00000000
      -----------------------------------------------------
      Nuclear repulsion energy =  186.23615787
--

++    Orbital specifications:
      -----------------------

      Symmetry species               1   2   3   4
                                    a1  b1  a2  b2
      Frozen orbitals                0   0   0   0
      Aufbau                        20
      Start temperature = 0.500
      End temperature   = 0.010
      Temperature Factor= 0.460
      Deleted orbitals               0   0   0   0
      Total number of orbitals      37  37  12  12
      Number of basis functions     37  37  12  12
--

      Molecular charge                           0.000

++    Optimization specifications:
      ----------------------------

      SCF Algorithm: Conventional
      Minimized density differences are used
      Number of density matrices in core                 5
      Maximum number of NDDO SCF iterations            400
      Maximum number of HF SCF iterations              400
      Threshold for SCF energy change             1.00E-09
      Threshold for density matrix                1.00E-04
      Threshold for Fock matrix                   1.50E-04
      Threshold for linear dependence             1.00E-09
      Threshold at which DIIS is turned on        1.50E-01
      Maximum depth in the DIIS procedure                5
      Maximum depth in the BFGS Hessian update          30
      Threshold at which QNR/C2DIIS is turned on  7.50E-02
      Threshold for Norm(delta) (QNR/C2DIIS)      1.00E-03
      All orbitals punched on: SCFORB
--

      Detected guessorb starting orbitals                                             


++ Convergence information
                                   SCF        iterations: Energy and convergence statistics

Iter     Tot. SCF        One-elec.       Two-elec.     Energy      Max Dij or  Max Fij      DNorm      TNorm      AccCon     Time
         Energy          Energy          Energy        Change      Delta Norm                                                in Sec.
   1  -219.102194842  -670.339834528   265.001481816   0.00E+00    7.88E-02*   4.75E-01*    9.94E+00   2.59E+02   None         0.
   2  -225.020215928  -666.301299272   255.044925474  -5.92E+00*   9.47E-02*   6.43E-02*    2.56E+01   2.54E+02   EDIIS        0.
   3  -228.502697185  -680.220169036   265.481313982  -3.48E+00*   1.08E-01*   1.09E-01*    5.64E+00   2.59E+02   EDIIS        0.
   4  -229.111116428  -675.448346000   260.101071702  -6.08E-01*   5.03E-02*   4.23E-02*    1.86E+00   2.57E+02   EDIIS        0.
   5  -229.257079224  -677.837862888   262.344625794  -1.46E-01*   4.87E-02*   2.22E-02*    9.06E-01   2.58E+02   EDIIS        0.
   6  -229.269276907  -676.799057488   261.293622712  -1.22E-02*   1.86E-02*   1.38E-02*    2.00E-01   2.57E+02   EDIIS        0.
   7  -229.270198326  -677.264569098   261.758212903  -9.21E-04*   1.94E-02*   1.18E-02*    1.16E-01   2.57E+02   EDIIS        0.

       Fermi aufbau procedure completed!
      nOcc=    9    8    1    2

   8  -229.270443994  -677.057003194   261.550401330  -2.46E-04*   9.83E-03*   7.10E-03*    4.24E-02   2.57E+02   EDIIS        0.
   9  -229.270576342  -677.137501078   261.630766867  -1.32E-04*   8.83E-03*   4.52E-03*    1.21E-02   2.57E+02   EDIIS        0.
  10  -229.270604695  -677.118409057   261.611646493  -2.84E-05*   3.65E-03*   2.68E-03*    5.98E-03   2.57E+02   EDIIS        0.
  11  -229.270627228  -677.122104247   261.615319149  -2.25E-05*   3.42E-03*   7.97E-04*    1.15E-03   2.57E+02   EDIIS        0.
  12  -229.270628923  -677.123368793   261.616582000  -1.69E-06*   8.78E-04*   3.38E-04*    3.29E-04   2.57E+02   c2DIIS       0.
  13  -229.270632463  -677.122810210   261.616019878  -3.54E-06*   4.27E-04    1.38E-04     4.37E-05   2.57E+02   QNRc2DIIS    0.
  14  -229.270632794  -677.122878108   261.616087445  -3.31E-07*   6.82E-04    8.46E-05     1.41E-05   2.57E+02   QNRc2DIIS    0.
  15  -229.270632980  -677.122828011   261.616037161  -1.86E-07*   5.24E-05    2.69E-05     4.16E-03   2.57E+02   QNRc2DIIS    0.
  16  -229.270632988  -677.122889946   261.616099089  -7.71E-09*   7.05E-06    5.24E-06     1.37E-02   2.57E+02   QNRc2DIIS    0.
  17  -229.270632988  -677.122896106   261.616105248  -2.14E-10    2.29E-05    3.09E-06     4.59E-03   2.57E+02   QNRc2DIIS    0.

       Convergence after  17 Macro Iterations
--

 *****************************************************************************************************************************
 *                                                                                                                           *
 *                                             SCF/KS-DFT Program, Final results                                             *
 *                                                                                                                           *
 *                                                                                                                           *
 *                                                                                                                           *
 *                                                       Final Results                                                       *
 *                                                                                                                           *
 *****************************************************************************************************************************

::    Total SCF energy                               -229.2706329881
      One-electron energy                            -677.1228961058
      Two-electron energy                             261.6161052482
      Nuclear repulsion energy                        186.2361578694
      Kinetic energy (interpolated)                   229.1131160585
      Virial theorem                                    1.0006875073
      Total spin, S(S+1)                                0.0000000000
      Total spin, S                                     0.0000000000
      Max non-diagonal density matrix element           0.0000282378
      Max non-diagonal Fock matrix element              0.0000043044


      All orbitals with orbital energies smaller than  E(LUMO)+0.5 are printed

++    Molecular orbitals:
      -------------------

      Title: SCF orbitals

      Molecular orbitals for symmetry species 1: a1 

          Orbital            1         2         3         4         5         6         7         8         9        10    
          Energy          -11.2659  -11.2656  -11.2428   -1.1617   -1.0185   -0.7966   -0.6547   -0.6418   -0.5423   -0.0009
          Occ. No.          2.0000    2.0000    2.0000    2.0000    2.0000    2.0000    2.0000    2.0000    2.0000    0.0000

        1 C1     1s         0.9934   -0.0488   -0.0443   -0.1213    0.1537   -0.0671    0.0171    0.0130    0.0239    0.0102
        2 C1     2s         0.0272   -0.0015   -0.0018    0.2300   -0.2945    0.1343   -0.0314   -0.0295   -0.0501    0.0117
        3 C1     *s        -0.0092    0.0006    0.0061    0.1509   -0.2451    0.1249   -0.0486   -0.0183   -0.0643   -0.2609
        4 C1     2px       -0.0001    0.0000   -0.0001   -0.0228    0.0321   -0.0792   -0.1413    0.2057    0.4342    0.2617
        5 C1     *px       -0.0007    0.0001    0.0001   -0.0095    0.0099   -0.0276   -0.0630    0.0889    0.2131    0.1929
        6 C1     2py        0.0001    0.0000    0.0003   -0.0886    0.0141    0.2869    0.3060    0.1188    0.1126   -0.0775
        7 C1     *py        0.0007   -0.0002   -0.0033   -0.0082   -0.0086    0.1153    0.1245    0.0538    0.0713   -0.0319
        8 C1     *200      -0.0016    0.0001   -0.0001    0.0036   -0.0070    0.0057    0.0011   -0.0046   -0.0117   -0.0168
        9 C1     *110      -0.0001   -0.0000    0.0002   -0.0016    0.0004    0.0095    0.0129   -0.0031   -0.0041    0.0245
       10 C1     *020      -0.0008    0.0001   -0.0001    0.0076   -0.0076    0.0056    0.0060    0.0043    0.0106    0.0167
       11 C1     *002      -0.0014    0.0000   -0.0000   -0.0064    0.0075   -0.0032    0.0005    0.0005   -0.0001    0.0004
       12 C2     1s         0.0449    0.0278    0.9943   -0.1358    0.0220    0.1154    0.0114   -0.0815   -0.0275    0.0469
       13 C2     2s         0.0007    0.0005    0.0274    0.2583   -0.0416   -0.2319   -0.0211    0.1671    0.0560   -0.0576
       14 C2     *s         0.0036    0.0031   -0.0155    0.1418   -0.0255   -0.1342   -0.0058    0.2034    0.0765   -0.2700
       15 C2     2px        0.0002    0.0002   -0.0011   -0.1032    0.0066    0.0566   -0.0370    0.1691    0.0888   -0.4427
       16 C2     *px       -0.0007   -0.0007    0.0040   -0.0110   -0.0023   -0.0170   -0.0191    0.0791    0.0489   -0.5520
       17 C2     2py       -0.0002    0.0002   -0.0001    0.0017   -0.1948    0.0126   -0.3708   -0.1009    0.1305    0.0334
       18 C2     *py        0.0017   -0.0015   -0.0003   -0.0028   -0.0123    0.0135   -0.0615   -0.0225    0.0366    0.0219
       19 C2     *200      -0.0002   -0.0002   -0.0013   -0.0004    0.0012    0.0006    0.0026   -0.0127   -0.0042    0.0030
       20 C2     *110      -0.0000   -0.0000    0.0000    0.0011    0.0163    0.0006    0.0241    0.0032    0.0163    0.0029
       21 C2     *020      -0.0001   -0.0002   -0.0005    0.0072    0.0002   -0.0040   -0.0013    0.0112    0.0032    0.0086
       22 C2     *002      -0.0001   -0.0001   -0.0013   -0.0071    0.0006    0.0044    0.0000   -0.0004    0.0004   -0.0033
       23 H3     1s        -0.0004    0.0000    0.0000    0.0454   -0.0997    0.1790    0.1243    0.0930    0.1473    0.1235
       24 H3     *s         0.0019    0.0001    0.0007    0.0037   -0.0195    0.0779    0.0841    0.0590    0.1101    0.3007
       25 C4     1s         0.0475    0.9939   -0.0305   -0.1385   -0.1538   -0.0546   -0.0135    0.0122   -0.0185    0.0062
       26 C4     2s         0.0011    0.0273   -0.0013    0.2660    0.2993    0.1095    0.0290   -0.0313    0.0415    0.0115
       27 C4     *s        -0.0001   -0.0088    0.0051    0.1678    0.2435    0.1057    0.0383    0.0106    0.0389   -0.1880
       28 C4     2px       -0.0000    0.0001   -0.0001   -0.0485   -0.0798   -0.1112    0.0620    0.4269   -0.3160    0.2173
       29 C4     *px        0.0001   -0.0008    0.0000   -0.0094   -0.0072   -0.0248    0.0288    0.1696   -0.1377    0.1209
       30 C4     2py       -0.0001    0.0001   -0.0004    0.0798   -0.0230   -0.2582    0.3492   -0.0736    0.0929    0.0877
       31 C4     *py        0.0002   -0.0008    0.0027    0.0081   -0.0154   -0.0959    0.1402   -0.0415    0.0560    0.0245
       32 C4     *200      -0.0001   -0.0013   -0.0002    0.0058    0.0090    0.0057   -0.0000   -0.0075    0.0085   -0.0132
       33 C4     *110      -0.0000    0.0001   -0.0003    0.0014   -0.0031   -0.0107    0.0108    0.0055    0.0030   -0.0238
       34 C4     *020       0.0000   -0.0010   -0.0002    0.0066    0.0031   -0.0002   -0.0054    0.0099   -0.0121    0.0159
       35 C4     *002      -0.0001   -0.0014   -0.0001   -0.0074   -0.0072   -0.0022   -0.0004   -0.0001    0.0005    0.0007
       36 H5     1s        -0.0000   -0.0003    0.0000    0.0536    0.1005    0.1367   -0.1541    0.1351   -0.1320    0.1076
       37 H5     *s         0.0003    0.0018    0.0006    0.0049    0.0177    0.0581   -0.1017    0.0852   -0.1050    0.2471

          Orbital           11        12        13    
          Energy            0.2557    0.2763    0.4468
          Occ. No.          0.0000    0.0000    0.0000

        1 C1     1s         0.0788    0.0489   -0.0537
        2 C1     2s        -0.1257   -0.0236   -0.0301
        3 C1     *s        -0.9776   -1.3952    1.8833
        4 C1     2px       -0.1537   -0.0867   -0.0524
        5 C1     *px       -0.4550   -0.4835    0.3786
        6 C1     2py       -0.1269   -0.2052   -0.0594
        7 C1     *py       -0.7730   -0.5763   -1.8668
        8 C1     *200      -0.0022   -0.0001    0.0118
        9 C1     *110      -0.0020    0.0003    0.0118
       10 C1     *020       0.0067   -0.0006   -0.0069
       11 C1     *002       0.0000    0.0037   -0.0059
       12 C2     1s        -0.0267   -0.0091    0.1502
       13 C2     2s         0.0578    0.0192   -0.1659
       14 C2     *s        -0.1082    0.0913   -4.8308
       15 C2     2px        0.0243   -0.0073    0.0331
       16 C2     *px        0.5678   -0.0465    1.7281
       17 C2     2py        0.0022    0.0268    0.0605
       18 C2     *py       -0.0418    0.4556    0.1076
       19 C2     *200       0.0090   -0.0009    0.0008
       20 C2     *110      -0.0028   -0.0203   -0.0014
       21 C2     *020      -0.0181    0.0012   -0.0218
       22 C2     *002       0.0034   -0.0000    0.0021
       23 H3     1s         0.0053   -0.0027   -0.0482
       24 H3     *s         1.6049    1.5262    0.7979
       25 C4     1s         0.0707   -0.0519   -0.0677
       26 C4     2s        -0.1188    0.0293   -0.0104
       27 C4     *s        -0.9284    1.4430    2.1589
       28 C4     2px       -0.1613    0.1086   -0.0328
       29 C4     *px       -0.4773    0.5858    0.6717
       30 C4     2py        0.0882   -0.2336    0.0554
       31 C4     *py        0.5885   -0.6942    1.7548
       32 C4     *200      -0.0019   -0.0006    0.0123
       33 C4     *110      -0.0005    0.0096   -0.0282
       34 C4     *020       0.0072    0.0008   -0.0075
       35 C4     *002      -0.0011   -0.0030   -0.0047
       36 H5     1s         0.0073   -0.0090    0.0197
       37 H5     *s         1.3889   -1.7508    0.4719

      Molecular orbitals for symmetry species 2: b1 

          Orbital            1         2         3         4         5         6         7         8         9        10    
          Energy          -11.2655  -11.2647  -11.2429   -1.0210   -0.8509   -0.6634   -0.5568   -0.2754    0.3025    0.3203
          Occ. No.          2.0000    2.0000    2.0000    2.0000    2.0000    2.0000    2.0000    2.0000    0.0000    0.0000

        1 C1     1s         0.9939   -0.0427   -0.0454   -0.1185    0.1254   -0.0585   -0.0081    0.0618    0.0677   -0.0992
        2 C1     2s         0.0273   -0.0011   -0.0019    0.2332   -0.2524    0.1182    0.0199   -0.1520   -0.1636    0.1188
        3 C1     *s        -0.0190   -0.0023    0.0118    0.1616   -0.2279    0.1276   -0.0062   -0.0851    0.0639    1.7705
        4 C1     2px       -0.0001   -0.0000   -0.0002    0.1026   -0.1269    0.0615    0.0318    0.1023   -0.0785   -0.0942
        5 C1     *px        0.0026    0.0007   -0.0010    0.0174   -0.0436    0.0251    0.0249    0.1687   -0.3346   -0.4841
        6 C1     2py       -0.0000   -0.0000    0.0003   -0.1203    0.0147    0.3349   -0.3011    0.0853   -0.1475    0.1471
        7 C1     *py        0.0035    0.0016   -0.0059    0.0141   -0.0445    0.1728   -0.1332   -0.1711   -2.1874    1.1039
        8 C1     *200      -0.0009    0.0001   -0.0002   -0.0065    0.0047   -0.0016    0.0013    0.0155    0.0010   -0.0091
        9 C1     *110      -0.0002    0.0000    0.0001   -0.0076    0.0026    0.0233   -0.0227   -0.0126   -0.0075    0.0072
       10 C1     *020      -0.0006    0.0001   -0.0001    0.0116   -0.0102    0.0099   -0.0093   -0.0143    0.0132    0.0065
       11 C1     *002      -0.0012    0.0001   -0.0001   -0.0052    0.0053   -0.0029    0.0004   -0.0009   -0.0055   -0.0003
       12 C2     1s         0.0457    0.0295    0.9943   -0.1816   -0.0084    0.0779    0.0139   -0.0650   -0.0109   -0.0047
       13 C2     2s         0.0007    0.0005    0.0278    0.3503    0.0193   -0.1595   -0.0309    0.1239    0.1505    0.0042
       14 C2     *s         0.0090    0.0085   -0.0220    0.2673    0.0091   -0.0541   -0.0303   -0.0409   -2.5693    0.0859
       15 C2     2px        0.0001    0.0001   -0.0011   -0.0920   -0.0123    0.0996    0.0206    0.5155   -0.0980    0.0064
       16 C2     *px       -0.0027   -0.0027    0.0063   -0.0213   -0.0034   -0.0009    0.0040    0.5395    1.0686    0.1006
       17 C2     2py       -0.0001    0.0001   -0.0001    0.0298   -0.3140   -0.0394    0.3455   -0.0095   -0.0012   -0.0723
       18 C2     *py        0.0020   -0.0016   -0.0006    0.0022   -0.0443   -0.0021    0.0831   -0.0225   -0.2118   -0.0397
       19 C2     *200      -0.0003   -0.0003   -0.0013   -0.0039    0.0005   -0.0031   -0.0008   -0.0121    0.0036    0.0002
       20 C2     *110      -0.0000   -0.0001    0.0000   -0.0008    0.0156    0.0049   -0.0251    0.0029   -0.0024   -0.0139
       21 C2     *020      -0.0002   -0.0003   -0.0005    0.0111    0.0020    0.0027    0.0003    0.0015   -0.0204   -0.0042
       22 C2     *002      -0.0002   -0.0001   -0.0012   -0.0081   -0.0006    0.0031    0.0003    0.0043    0.0089    0.0016
       23 H3     1s         0.0003    0.0001   -0.0001   -0.0562    0.1197   -0.2515    0.1727    0.0381   -0.0434   -0.0090
       24 H3     *s        -0.0014    0.0005   -0.0010    0.0006    0.0254   -0.1409    0.1377   -0.0149   -2.2417    1.6934
       25 C4     1s         0.0413    0.9946   -0.0321   -0.0929   -0.1350   -0.0540   -0.0050    0.0507    0.0650    0.0964
       26 C4     2s         0.0012    0.0277   -0.0013    0.1826    0.2733    0.1101    0.0041   -0.1293   -0.1663   -0.1326
       27 C4     *s        -0.0038   -0.0204    0.0113    0.1307    0.2409    0.1017    0.0350   -0.0788    0.0209   -1.6929
       28 C4     2px       -0.0000   -0.0002   -0.0002    0.1015    0.1661    0.0748   -0.0048    0.0392   -0.0865   -0.0187
       29 C4     *px        0.0012    0.0032   -0.0015    0.0157    0.0718    0.0466   -0.0140    0.1096   -0.6068    0.1162
       30 C4     2py        0.0000    0.0002   -0.0003    0.0963    0.0209   -0.2334   -0.3741   -0.0749    0.1155    0.1206
       31 C4     *py       -0.0016   -0.0038    0.0052    0.0022   -0.0376   -0.1440   -0.1965    0.1596    1.9585    1.2112
       32 C4     *200      -0.0001   -0.0007   -0.0003   -0.0042   -0.0038   -0.0003   -0.0005    0.0139    0.0031    0.0066
       33 C4     *110      -0.0000    0.0002   -0.0002    0.0076    0.0012   -0.0218   -0.0344    0.0091    0.0073    0.0080
       34 C4     *020       0.0001   -0.0007   -0.0003    0.0107    0.0111    0.0047    0.0087   -0.0130    0.0110   -0.0042
       35 C4     *002      -0.0000   -0.0012   -0.0001   -0.0046   -0.0060   -0.0023   -0.0009   -0.0009   -0.0054    0.0004
       36 H5     1s        -0.0001   -0.0003    0.0000    0.0497    0.1364    0.1938    0.2322   -0.0359    0.0332   -0.0070
       37 H5     *s        -0.0003    0.0012    0.0009    0.0074    0.0326    0.1005    0.1757    0.0152    2.0650    1.8142

          Orbital           11    
          Energy            0.4134
          Occ. No.          0.0000

        1 C1     1s         0.0786
        2 C1     2s        -0.0854
        3 C1     *s        -1.4499
        4 C1     2px        0.3856
        5 C1     *px        1.9153
        6 C1     2py        0.1187
        7 C1     *py        0.7182
        8 C1     *200       0.0183
        9 C1     *110       0.0076
       10 C1     *020      -0.0174
       11 C1     *002      -0.0020
       12 C2     1s         0.0257
       13 C2     2s        -0.0049
       14 C2     *s        -0.5712
       15 C2     2px       -0.0478
       16 C2     *px       -0.1412
       17 C2     2py       -0.0315
       18 C2     *py        0.4250
       19 C2     *200      -0.0026
       20 C2     *110       0.0434
       21 C2     *020       0.0121
       22 C2     *002      -0.0029
       23 H3     1s         0.0507
       24 H3     *s         1.0222
       25 C4     1s        -0.0584
       26 C4     2s         0.0953
       27 C4     *s         1.2134
       28 C4     2px       -0.0908
       29 C4     *px       -1.1267
       30 C4     2py        0.2361
       31 C4     *py        1.1793
       32 C4     *200      -0.0060
       33 C4     *110       0.0074
       34 C4     *020       0.0085
       35 C4     *002       0.0016
       36 H5     1s         0.0079
       37 H5     *s         1.2194

      Molecular orbitals for symmetry species 3: a2 

          Orbital            1         2         3    
          Energy           -0.3644    0.1021    0.3688
          Occ. No.          2.0000    0.0000    0.0000

        1 C1     2pz        0.3025   -0.3844    0.3176
        2 C1     *pz        0.2355   -0.5872    0.8914
        3 C1     *101       0.0193   -0.0190    0.0038
        4 C1     *011      -0.0226   -0.0024    0.0310
        5 C2     2pz        0.4354    0.0433   -0.3784
        6 C2     *pz        0.3039    0.0704   -1.0218
        7 C2     *101      -0.0210   -0.0014   -0.0078
        8 C2     *011       0.0066   -0.0476    0.0001
        9 C4     2pz        0.2073    0.4104    0.3378
       10 C4     *pz        0.1658    0.6544    0.9590
       11 C4     *101       0.0169    0.0264    0.0090
       12 C4     *011       0.0189    0.0030   -0.0271

      Molecular orbitals for symmetry species 4: b2 

          Orbital            1         2         3    
          Energy           -0.5147   -0.3357    0.1825
          Occ. No.          2.0000    2.0000    0.0000

        1 C1     2pz        0.2922   -0.3724   -0.2215
        2 C1     *pz        0.1929   -0.3248   -0.5293
        3 C1     *101      -0.0039    0.0122    0.0313
        4 C1     *011      -0.0168    0.0039   -0.0351
        5 C2     2pz        0.3092   -0.0511    0.4472
        6 C2     *pz        0.1641   -0.0394    0.8579
        7 C2     *101      -0.0217    0.0013    0.0014
        8 C2     *011       0.0021   -0.0340   -0.0038
        9 C4     2pz        0.3099    0.4006   -0.1882
       10 C4     *pz        0.2033    0.3466   -0.4070
       11 C4     *101      -0.0102   -0.0227    0.0325
       12 C4     *011       0.0149   -0.0010    0.0320
--


++    Molecular charges:
      ------------------

      Mulliken charges per centre and basis function type
      ---------------------------------------------------

                C1      C2      H3      C4      H5    
      1s       1.9968  1.9970  0.5119  1.9968  0.5180
      2s       0.6937  0.6993  0.0000  0.6889  0.0000
      2px      0.5778  0.5834  0.0000  0.6693  0.0000
      2pz      0.5565  0.5204  0.0000  0.5329  0.0000
      2py      0.7912  0.7857  0.0000  0.7618  0.0000
      *s       0.5282  0.4269  0.2325  0.5128  0.2413
      *px      0.2860  0.4383  0.0000  0.2481  0.0000
      *110     0.0119  0.0155  0.0000  0.0153  0.0000
      *020     0.0443  0.0308  0.0000  0.0348  0.0000
      *002    -0.0190 -0.0156  0.0000 -0.0191  0.0000
      *200     0.0097 -0.0106  0.0000  0.0165  0.0000
      *pz      0.4950  0.3824  0.0000  0.4792  0.0000
      *py      0.3035  0.0858  0.0000  0.3105  0.0000
      *101     0.0039  0.0044  0.0000  0.0061  0.0000
      *011     0.0056  0.0097  0.0000  0.0041  0.0000
      Total    6.2850  5.9534  0.7444  6.2579  0.7593

      N-E     -0.2850  0.0466  0.2556 -0.2579  0.2407

      Total electronic charge=   40.000000

      Total            charge=   -0.000000
--


++    Molecular properties:
      ---------------------

      Charge (e):
                      =   -0.0000
      Dipole Moment (Debye):
      Origin of the operator (Ang)=    0.0000    0.0000    0.0000
                   X=  0.0000E+00               Y=  1.2605E-01               Z=  0.0000E+00           Total=  1.2605E-01
      Quadrupole Moment (Debye*Ang):
      Origin of the operator (Ang)=    0.0000    0.0000    0.0000
                  XX= -3.8119E+01              XY=  0.0000E+00              XZ=  0.0000E+00              YY= -2.4501E+01
                  YZ=  0.0000E+00              ZZ= -3.8170E+01
      In traceless form (Debye*Ang)
                  XX= -6.7833E+00              XY=  0.0000E+00              XZ=  0.0000E+00              YY=  1.3644E+01
                  YZ=  0.0000E+00              ZZ= -6.8603E+00
--


      Input file to MOLDEN was generated!

 ###############################################################################
 ###############################################################################
 ###                                                                         ###
 ###                                                                         ###
 ###    WARNING: RunFile label nBas                                          ###
 ###    was used       59 times                                              ###
 ###                                                                         ###
 ###                                                                         ###
 ###############################################################################
 ###############################################################################
--- Stop Module: scf at Sun Jul  7 15:33:19 2024 /rc=_RC_ALL_IS_WELL_ ---
*** files: ts.scf.molden ts.ScfOrb xmldump
    saved to directory /home/kenya/molcas_test/exercise_1
--- Module scf spent 1 second ---

--- Start Module: alaska at Sun Jul  7 15:33:19 2024 ---

()()()()()()()()()()()()()()()()()()()()()()()()()()()()()()()()()()()()()()()()()()()()()()()()()()

                                              &ALASKA

                                   only a single process is used
                       available to each process: 2.0 GB of memory, 1 thread
                                            pid: 402899
()()()()()()()()()()()()()()()()()()()()()()()()()()()()()()()()()()()()()()()()()()()()()()()()()()


                     Threshold for contributions to the gradient: 1.000E-07


                    ********************************************
                    * Symmetry Adapted Cartesian Displacements *
                    ********************************************


           Irreducible representation : a1 
           Basis function(s) of irrep: y                                                                               

 Basis Label        Type   Center Phase
   1   C1           x         1     1      2    -1
   2   C1           y         1     1      2     1
   3   C2           x         3     1      4    -1
   4   C2           y         3     1      4     1
   5   H3           x         5     1      6    -1
   6   H3           y         5     1      6     1
   7   C4           x         7     1      8    -1
   8   C4           y         7     1      8     1
   9   H5           x         9     1     10    -1
  10   H5           y         9     1     10     1

           Irreducible representation : b1 
           Basis function(s) of irrep: x, xy, Rz                                                                       

 Basis Label        Type   Center Phase
  11   C1           x         1     1      2     1
  12   C1           y         1     1      2    -1
  13   C2           x         3     1      4     1
  14   C2           y         3     1      4    -1
  15   H3           x         5     1      6     1
  16   H3           y         5     1      6    -1
  17   C4           x         7     1      8     1
  18   C4           y         7     1      8    -1
  19   H5           x         9     1     10     1
  20   H5           y         9     1     10    -1

           Irreducible representation : a2 
           Basis function(s) of irrep: xz, Ry, I                                                                       

 Basis Label        Type   Center Phase
  21   C1           z         1     1      2    -1
  22   C2           z         3     1      4    -1
  23   H3           z         5     1      6    -1
  24   C4           z         7     1      8    -1
  25   H5           z         9     1     10    -1

           Irreducible representation : b2 
           Basis function(s) of irrep: z, yz, Rx                                                                       

 Basis Label        Type   Center Phase
  26   C1           z         1     1      2     1
  27   C2           z         3     1      4     1
  28   H3           z         5     1      6     1
  29   C4           z         7     1      8     1
  30   H5           z         9     1     10     1

                     No automatic utilization of translational and rotational invariance of the energy is employed.

 Conventional ERI gradients!

 **************************************************
 *                                                *
 *              Molecular gradients               *
 *                                                *
 **************************************************

  Irreducible representation: a1 
 ------------------------------------------------------------------------------------------
                              X                       Y                       Z
 ------------------------------------------------------------------------------------------
  C1                1.68153587901121E-06    6.82509023519628E-07    0.00000000000000E+00
  C1               -1.68153587901121E-06    6.82509023519628E-07    0.00000000000000E+00
  C2                3.67098193621018E-07   -5.51833091666509E-06    0.00000000000000E+00
  C2               -3.67098193621018E-07   -5.51833091666509E-06    0.00000000000000E+00
  H3                1.02333051654746E-06    2.11226183211011E-07    0.00000000000000E+00
  H3               -1.02333051654746E-06    2.11226183211011E-07    0.00000000000000E+00
  C4                7.93602803428328E-06    4.89146293070064E-06    0.00000000000000E+00
  C4               -7.93602803428328E-06    4.89146293070064E-06    0.00000000000000E+00
  H5               -1.17359555007468E-06   -2.66867174580909E-07    0.00000000000000E+00
  H5                1.17359555007468E-06   -2.66867174580909E-07    0.00000000000000E+00
 ------------------------------------------------------------------------------------------

--- Stop Module: alaska at Sun Jul  7 15:33:21 2024 /rc=_RC_ALL_IS_WELL_ ---
*** files: xmldump
    saved to directory /home/kenya/molcas_test/exercise_1
--- Module alaska spent 1 second ---

--- Start Module: slapaf at Sun Jul  7 15:33:21 2024 ---

()()()()()()()()()()()()()()()()()()()()()()()()()()()()()()()()()()()()()()()()()()()()()()()()()()

                                              &SLAPAF

                                   only a single process is used
                       available to each process: 2.0 GB of memory, 1 thread
                                            pid: 402932
()()()()()()()()()()()()()()()()()()()()()()()()()()()()()()()()()()()()()()()()()()()()()()()()()()



++       Slapaf input parameters:
         ------------------------

 Maximum number of iterations:              2000
 Convergence test a la Schlegel.
 Convergence criterion on gradient/para.<=: 3.0E-04
 Convergence criterion on step/parameter<=: 3.0E-04
 Convergence criterion on energy change <=: 0.0E+00
 Parameters for step-restricted optimization
 Maximum step length (initial seed):       3.00E-01

 -RFO activated with parameters:
   Maximum number of data points used in RFO:      5
 Line search is performed


 -Optimization for minimum.
  Optimization method: RS-RFO.

 -Initial Hessian guessed by Hessian Model Function (HMF).
  HMF augmented with weak interactions.

 -Hessian update method: Broyden-Fletcher-Goldfarb-Shanno
  Maximum number of points in Hessian update:  5

 -Relaxation will be done on non-redundant internal coordinates, based on
  force constant weighted redundant internal coordinates.

--

 ******************************************
 * Statistics of the internal coordinates *
 ******************************************
 Translations and Rotations:         0
 Bonds                     :         6
 Angles                    :         7
 Torsions                  :        10
 Out-of-plane angles       :         2


**********************************************************************************************************************
*                                    Energy Statistics for Geometry Optimization                                     *
**********************************************************************************************************************
                       Energy     Grad      Grad              Step                 Estimated   Geom       Hessian     
Iter      Energy       Change     Norm      Max    Element    Max     Element     Final Energy Update Update   Index  
  1   -229.27063299  0.00000000 0.000016 -0.000006 nrc002  -0.000012  nrc002     -229.27063299 RS-RFO  None      0    

       +----------------------------------+----------------------------------+
       +    Cartesian Displacements       +    Gradient in internals         +
       +  Value      Threshold Converged? +  Value      Threshold Converged? +
 +-----+----------------------------------+----------------------------------+
 + RMS + 8.8376E-06  1.2000E-03     Yes   + 6.4116E-06  3.0000E-04     Yes   +
 +-----+----------------------------------+----------------------------------+
 + Max + 1.1514E-05  1.8000E-03     Yes   + 5.9309E-06  4.5000E-04     Yes   +
 +-----+----------------------------------+----------------------------------+

 Geometry is converged in   1 iterations to a Minimum Structure

*****************************************************************************************************************
*****************************************************************************************************************

++ Geometry section

********************************************************************************
  Geometrical information of the final structure
********************************************************************************

  NOTE: on convergence the final predicted structure will be printed here.
  This is not identical to the structure printed in the head of the output.

 *********************************************************
 * Nuclear coordinates of the final structure / Bohr     *
 *********************************************************
  ATOM              X               Y               Z     
  C1               1.504608        2.235589        0.000000
  C2               2.539082        0.018711        0.000000
  H3              -2.224805        4.124735        0.000000
  C4               1.351866       -2.258198        0.000000
  H5               2.245870       -4.077899        0.000000


 *********************************************************
 * Nuclear coordinates of the final structure / Angstrom *
 *********************************************************
  ATOM              X               Y               Z     
  C1               0.796204        1.183023        0.000000
  C2               1.343624        0.009902        0.000000
  H3              -1.177316        2.182716        0.000000
  C4               0.715377       -1.194987        0.000000
  H5               1.188463       -2.157931        0.000000


                    *************************************** 
                    *    InterNuclear Distances / Bohr    * 
                    *************************************** 

               1 C1            2 C1            3 C2            4 C2            5 H3    
    1 C1       0.000000
    2 C1       3.009216        0.000000
    3 C2       2.446361        4.611505        0.000000
    4 C2       4.611505        2.446361        5.078164        0.000000
    5 H3       4.180597        2.021771        6.289201        4.118033        0.000000
    6 H3       2.021771        4.180597        4.118033        6.289201        4.449610
    7 C4       4.496381        5.324806        2.567839        4.508192        7.316721
    8 C4       5.324806        4.496381        4.508192        2.567839        6.442348
    9 H5       6.356854        7.343446        4.107090        6.299046        9.341848
   10 H5       7.343446        6.356854        6.299046        4.107090        8.202660

               6 H3            7 C4            8 C4            9 H5           10 H5    
    6 H3       0.000000
    7 C4       6.442348        0.000000
    8 C4       7.316721        2.703733        0.000000
    9 H5       8.202660        2.027450        4.031751        0.000000
   10 H5       9.341848        4.031751        2.027450        4.491739        0.000000

                    ******************************************* 
                    *    InterNuclear Distances / Angstrom    * 
                    ******************************************* 

               1 C1            2 C1            3 C2            4 C2            5 H3    
    1 C1       0.000000
    2 C1       1.592409        0.000000
    3 C2       1.294558        2.440303        0.000000
    4 C2       2.440303        1.294558        2.687249        0.000000
    5 H3       2.212277        1.069875        3.328102        2.179169        0.000000
    6 H3       1.069875        2.212277        2.179169        3.328102        2.354632
    7 C4       2.379383        2.817766        1.358842        2.385632        3.871842
    8 C4       2.817766        2.379383        2.385632        1.358842        3.409144
    9 H5       3.363902        3.885985        2.173378        3.333311        4.943493
   10 H5       3.885985        3.363902        3.333311        2.173378        4.340661

               6 H3            7 C4            8 C4            9 H5           10 H5    
    6 H3       0.000000
    7 C4       3.409144        0.000000
    8 C4       3.871842        1.430754        0.000000
    9 H5       4.340661        1.072880        2.133511        0.000000
   10 H5       4.943493        2.133511        1.072880        2.376926        0.000000

                    ************************************** 
                    *    Valence Bond Angles / Degree    * 
                    ************************************** 
                          Atom centers                 Phi
                      3 C2       1 C1       6 H3       134.12
                      4 C2       2 C1       5 H3       134.12
                      1 C1       3 C2       7 C4       127.45
                      2 C1       4 C2       8 C4       127.45
                      3 C2       7 C4       8 C4       117.54
                      3 C2       7 C4       9 H5       126.30
                      8 C4       7 C4       9 H5       116.16
                      4 C2       8 C4       7 C4       117.54
                      4 C2       8 C4      10 H5       126.30
                      7 C4       8 C4      10 H5       116.16

           ***************************************************************
           *              Valence Dihedral Angles / Degree               *
           ***************************************************************
                    Atom centers                       Phi1     Phi2     Theta 
           6 H3       1 C1       3 C2       7 C4        134.12   127.45  -180.00
           5 H3       2 C1       4 C2       8 C4        134.12   127.45  -180.00
           1 C1       3 C2       7 C4       8 C4        127.45   117.54    -0.00
           1 C1       3 C2       7 C4       9 H5        127.45   126.30  -180.00
           2 C1       4 C2       8 C4       7 C4        127.45   117.54     0.00
           2 C1       4 C2       8 C4      10 H5        127.45   126.30  -180.00
           3 C2       7 C4       8 C4       4 C2        117.54   117.54    -0.00
           3 C2       7 C4       8 C4      10 H5        117.54   116.16  -180.00
           9 H5       7 C4       8 C4      10 H5        116.16   116.16     0.00
           4 C2       8 C4       7 C4       9 H5        117.54   116.16  -180.00
--
--- Stop Module: slapaf at Sun Jul  7 15:33:21 2024 /rc=_RC_INVOKED_OTHER_MODULE_ ---
*** files: ts.geo.molden ts.structure ts.Opt.xyz xmldump
    saved to directory /home/kenya/molcas_test/exercise_1

--- Start Module: last_energy at Sun Jul  7 15:33:21 2024 ---

()()()()()()()()()()()()()()()()()()()()()()()()()()()()()()()()()()()()()()()()()()()()()()()()()()

                                            &LAST_ENERGY

                                   only a single process is used
                       available to each process: 2.0 GB of memory, 1 thread
                                            pid: 402936
()()()()()()()()()()()()()()()()()()()()()()()()()()()()()()()()()()()()()()()()()()()()()()()()()()


    Geometry read from RUNFILE

               SEWARD will generate:
                  Multipole Moment integrals up to order  2
                  Kinetic Energy integrals
                  Nuclear Attraction integrals (point charge)
                  One-Electron Hamiltonian integrals
                  Velocity integrals
                  Orbital angular momentum around ( 0.0000  0.0000  0.0000 )
                  Velocity quadrupole around ( 0.0000  0.0000  0.0000 )
                  Two-Electron Repulsion integrals

                   Integrals are discarded if absolute value <: 1.00E-14
                   Integral cutoff threshold is set to       <: 1.00E-16

                    Unitary symmetry adaptation


            Nuclear Potential Energy            186.23618784 au


      Basis set specifications :
      Symmetry species         a1   b1   a2   b2 
      Basis functions           37   37   12   12


      Input file to MOLDEN was generated!

++    Input section:
      --------------

      Header of the integral files:
      
       Integrals generated by Gateway/Seward, Sun Jul  7 15:33:21 2024


      Cartesian coordinates in Angstrom:
      -----------------------------------------------------
      No.  Label        X            Y            Z        
      -----------------------------------------------------
       1   C1         0.79620437   1.18302262   0.00000000
       2   C2         1.34362438   0.00990155   0.00000000
       3   H3        -1.17731607   2.18271563   0.00000000
       4   C4         0.71537694  -1.19498676   0.00000000
       5   H5         1.18846301  -2.15793100   0.00000000
       6   C1        -0.79620437   1.18302262   0.00000000
       7   C2        -1.34362438   0.00990155   0.00000000
       8   H3         1.17731607   2.18271563   0.00000000
       9   C4        -0.71537694  -1.19498676   0.00000000
      10   H5        -1.18846301  -2.15793100   0.00000000
      -----------------------------------------------------
      Nuclear repulsion energy =  186.23618784
--

++    Orbital specifications:
      -----------------------

      Symmetry species               1   2   3   4
                                    a1  b1  a2  b2
      Frozen orbitals                0   0   0   0
      Occupied orbitals              9   8   1   2
      Secondary orbitals            28  29  11  10
      Deleted orbitals               0   0   0   0
      Total number of orbitals      37  37  12  12
      Number of basis functions     37  37  12  12
--

      Molecular charge                           0.000

++    Optimization specifications:
      ----------------------------

      SCF Algorithm: Conventional
      Minimized density differences are used
      Number of density matrices in core                 5
      Maximum number of NDDO SCF iterations            400
      Maximum number of HF SCF iterations              400
      Threshold for SCF energy change             1.00E-09
      Threshold for density matrix                1.00E-04
      Threshold for Fock matrix                   1.50E-04
      Threshold for linear dependence             1.00E-09
      Threshold at which DIIS is turned on        1.50E-01
      Maximum depth in the DIIS procedure                5
      Maximum depth in the BFGS Hessian update          30
      Threshold at which QNR/C2DIIS is turned on  7.50E-02
      Threshold for Norm(delta) (QNR/C2DIIS)      1.00E-03
      All orbitals punched on: SCFORB
--

      Detected old SCF orbitals                                                       


++ Convergence information
                                   SCF        iterations: Energy and convergence statistics

Iter     Tot. SCF        One-elec.       Two-elec.     Energy      Max Dij or  Max Fij      DNorm      TNorm      AccCon     Time
         Energy          Energy          Energy        Change      Delta Norm                                                in Sec.
   1  -229.270632988  -677.122949568   261.616128740   0.00E+00    4.23E-06    1.10E-06     6.93E+00   2.57E+02   None         0.
   2  -229.270632988  -677.122959616   261.616138789  -5.09E-11    2.60E-06    6.73E-07     2.02E-05   2.57E+02   EDIIS        0.

       Convergence after   2 Macro Iterations
--

 *****************************************************************************************************************************
 *                                                                                                                           *
 *                                             SCF/KS-DFT Program, Final results                                             *
 *                                                                                                                           *
 *                                                                                                                           *
 *                                                                                                                           *
 *                                                       Final Results                                                       *
 *                                                                                                                           *
 *****************************************************************************************************************************

::    Total SCF energy                               -229.2706329884
      One-electron energy                            -677.1229596162
      Two-electron energy                             261.6161387888
      Nuclear repulsion energy                        186.2361878390
      Kinetic energy (interpolated)                   229.1131145372
      Virial theorem                                    1.0006875139
      Total spin, S(S+1)                                0.0000000000
      Total spin, S                                     0.0000000000
      Max non-diagonal density matrix element           0.0000025958
      Max non-diagonal Fock matrix element              0.0000006726


      All orbitals with orbital energies smaller than  E(LUMO)+0.5 are printed

++    Molecular orbitals:
      -------------------

      Title: SCF orbitals

      Molecular orbitals for symmetry species 1: a1 

          Orbital            1         2         3         4         5         6         7         8         9        10    
          Energy          -11.2659  -11.2656  -11.2428   -1.1617   -1.0185   -0.7966   -0.6547   -0.6418   -0.5423   -0.0009
          Occ. No.          2.0000    2.0000    2.0000    2.0000    2.0000    2.0000    2.0000    2.0000    2.0000    0.0000

        1 C1     1s         0.9934   -0.0486   -0.0443   -0.1213    0.1537   -0.0671    0.0171    0.0130    0.0239    0.0102
        2 C1     2s         0.0272   -0.0015   -0.0018    0.2300   -0.2945    0.1343   -0.0314   -0.0295   -0.0501    0.0117
        3 C1     *s        -0.0092    0.0006    0.0061    0.1509   -0.2451    0.1249   -0.0486   -0.0183   -0.0643   -0.2609
        4 C1     2px       -0.0001    0.0000   -0.0001   -0.0228    0.0321   -0.0792   -0.1413    0.2057    0.4342    0.2617
        5 C1     *px       -0.0007    0.0001    0.0001   -0.0095    0.0099   -0.0276   -0.0630    0.0889    0.2131    0.1929
        6 C1     2py        0.0001    0.0000    0.0003   -0.0886    0.0141    0.2869    0.3060    0.1188    0.1126   -0.0775
        7 C1     *py        0.0007   -0.0002   -0.0033   -0.0082   -0.0086    0.1153    0.1245    0.0538    0.0713   -0.0318
        8 C1     *200      -0.0016    0.0001   -0.0001    0.0036   -0.0070    0.0057    0.0011   -0.0046   -0.0117   -0.0168
        9 C1     *110      -0.0001   -0.0000    0.0002   -0.0016    0.0004    0.0095    0.0129   -0.0031   -0.0041    0.0245
       10 C1     *020      -0.0008    0.0001   -0.0001    0.0076   -0.0076    0.0056    0.0060    0.0043    0.0106    0.0167
       11 C1     *002      -0.0014    0.0000   -0.0000   -0.0064    0.0075   -0.0032    0.0005    0.0005   -0.0001    0.0004
       12 C2     1s         0.0449    0.0278    0.9943   -0.1358    0.0220    0.1154    0.0114   -0.0815   -0.0275    0.0469
       13 C2     2s         0.0007    0.0005    0.0274    0.2583   -0.0416   -0.2319   -0.0211    0.1671    0.0560   -0.0576
       14 C2     *s         0.0036    0.0031   -0.0155    0.1418   -0.0255   -0.1342   -0.0058    0.2034    0.0765   -0.2700
       15 C2     2px        0.0002    0.0002   -0.0011   -0.1032    0.0066    0.0566   -0.0370    0.1691    0.0888   -0.4427
       16 C2     *px       -0.0007   -0.0007    0.0040   -0.0110   -0.0023   -0.0170   -0.0191    0.0791    0.0489   -0.5520
       17 C2     2py       -0.0002    0.0002   -0.0001    0.0017   -0.1948    0.0126   -0.3708   -0.1010    0.1305    0.0334
       18 C2     *py        0.0017   -0.0015   -0.0003   -0.0028   -0.0123    0.0135   -0.0615   -0.0225    0.0366    0.0219
       19 C2     *200      -0.0002   -0.0002   -0.0013   -0.0004    0.0012    0.0006    0.0026   -0.0127   -0.0042    0.0030
       20 C2     *110      -0.0000   -0.0000    0.0000    0.0011    0.0163    0.0006    0.0241    0.0032    0.0163    0.0029
       21 C2     *020      -0.0001   -0.0002   -0.0005    0.0072    0.0002   -0.0040   -0.0013    0.0112    0.0032    0.0086
       22 C2     *002      -0.0001   -0.0001   -0.0013   -0.0071    0.0006    0.0044    0.0000   -0.0004    0.0004   -0.0033
       23 H3     1s        -0.0004    0.0000    0.0000    0.0454   -0.0997    0.1790    0.1243    0.0930    0.1473    0.1235
       24 H3     *s         0.0019    0.0001    0.0007    0.0037   -0.0195    0.0779    0.0841    0.0590    0.1101    0.3007
       25 C4     1s         0.0473    0.9939   -0.0305   -0.1385   -0.1538   -0.0546   -0.0135    0.0122   -0.0185    0.0062
       26 C4     2s         0.0011    0.0273   -0.0013    0.2660    0.2993    0.1095    0.0290   -0.0313    0.0415    0.0115
       27 C4     *s        -0.0001   -0.0088    0.0051    0.1678    0.2435    0.1057    0.0383    0.0106    0.0389   -0.1880
       28 C4     2px       -0.0000    0.0001   -0.0001   -0.0485   -0.0798   -0.1112    0.0620    0.4269   -0.3160    0.2173
       29 C4     *px        0.0001   -0.0008    0.0000   -0.0094   -0.0072   -0.0248    0.0288    0.1696   -0.1377    0.1209
       30 C4     2py       -0.0001    0.0001   -0.0004    0.0798   -0.0230   -0.2582    0.3492   -0.0736    0.0929    0.0877
       31 C4     *py        0.0002   -0.0008    0.0027    0.0081   -0.0154   -0.0959    0.1402   -0.0415    0.0560    0.0245
       32 C4     *200      -0.0001   -0.0013   -0.0002    0.0058    0.0090    0.0057   -0.0000   -0.0075    0.0085   -0.0132
       33 C4     *110      -0.0000    0.0001   -0.0003    0.0014   -0.0031   -0.0107    0.0108    0.0055    0.0030   -0.0238
       34 C4     *020       0.0000   -0.0010   -0.0002    0.0066    0.0031   -0.0002   -0.0054    0.0099   -0.0121    0.0159
       35 C4     *002      -0.0001   -0.0014   -0.0001   -0.0074   -0.0072   -0.0022   -0.0004   -0.0001    0.0005    0.0007
       36 H5     1s        -0.0000   -0.0003    0.0000    0.0536    0.1005    0.1367   -0.1541    0.1351   -0.1320    0.1076
       37 H5     *s         0.0003    0.0018    0.0006    0.0049    0.0177    0.0581   -0.1017    0.0852   -0.1050    0.2471

          Orbital           11        12        13    
          Energy            0.2557    0.2763    0.4468
          Occ. No.          0.0000    0.0000    0.0000

        1 C1     1s         0.0788   -0.0489   -0.0537
        2 C1     2s        -0.1257    0.0236   -0.0301
        3 C1     *s        -0.9776    1.3952    1.8833
        4 C1     2px       -0.1537    0.0867   -0.0524
        5 C1     *px       -0.4550    0.4835    0.3786
        6 C1     2py       -0.1268    0.2052   -0.0594
        7 C1     *py       -0.7730    0.5763   -1.8668
        8 C1     *200      -0.0022    0.0001    0.0118
        9 C1     *110      -0.0020   -0.0003    0.0118
       10 C1     *020       0.0067    0.0006   -0.0069
       11 C1     *002       0.0000   -0.0037   -0.0059
       12 C2     1s        -0.0267    0.0091    0.1502
       13 C2     2s         0.0578   -0.0192   -0.1659
       14 C2     *s        -0.1082   -0.0913   -4.8308
       15 C2     2px        0.0243    0.0073    0.0331
       16 C2     *px        0.5677    0.0465    1.7280
       17 C2     2py        0.0022   -0.0268    0.0605
       18 C2     *py       -0.0418   -0.4556    0.1077
       19 C2     *200       0.0090    0.0009    0.0008
       20 C2     *110      -0.0028    0.0203   -0.0014
       21 C2     *020      -0.0181   -0.0012   -0.0218
       22 C2     *002       0.0034    0.0000    0.0021
       23 H3     1s         0.0053    0.0027   -0.0482
       24 H3     *s         1.6049   -1.5262    0.7979
       25 C4     1s         0.0707    0.0519   -0.0677
       26 C4     2s        -0.1188   -0.0293   -0.0104
       27 C4     *s        -0.9284   -1.4430    2.1589
       28 C4     2px       -0.1613   -0.1086   -0.0328
       29 C4     *px       -0.4773   -0.5858    0.6717
       30 C4     2py        0.0882    0.2336    0.0554
       31 C4     *py        0.5885    0.6942    1.7548
       32 C4     *200      -0.0019    0.0006    0.0123
       33 C4     *110      -0.0005   -0.0096   -0.0282
       34 C4     *020       0.0072   -0.0008   -0.0075
       35 C4     *002      -0.0011    0.0030   -0.0047
       36 H5     1s         0.0073    0.0090    0.0197
       37 H5     *s         1.3890    1.7508    0.4718

      Molecular orbitals for symmetry species 2: b1 

          Orbital            1         2         3         4         5         6         7         8         9        10    
          Energy          -11.2655  -11.2647  -11.2429   -1.0210   -0.8509   -0.6634   -0.5568   -0.2754    0.3025    0.3203
          Occ. No.          2.0000    2.0000    2.0000    2.0000    2.0000    2.0000    2.0000    2.0000    0.0000    0.0000

        1 C1     1s         0.9939   -0.0426   -0.0454   -0.1185    0.1254   -0.0585   -0.0081    0.0618    0.0677   -0.0992
        2 C1     2s         0.0273   -0.0011   -0.0019    0.2332   -0.2524    0.1182    0.0199   -0.1520   -0.1637    0.1188
        3 C1     *s        -0.0190   -0.0023    0.0118    0.1616   -0.2279    0.1276   -0.0062   -0.0851    0.0640    1.7705
        4 C1     2px       -0.0001   -0.0000   -0.0002    0.1026   -0.1269    0.0615    0.0318    0.1023   -0.0785   -0.0942
        5 C1     *px        0.0026    0.0007   -0.0010    0.0174   -0.0436    0.0251    0.0249    0.1687   -0.3346   -0.4841
        6 C1     2py       -0.0000   -0.0000    0.0003   -0.1203    0.0147    0.3349   -0.3011    0.0853   -0.1475    0.1471
        7 C1     *py        0.0035    0.0016   -0.0059    0.0141   -0.0445    0.1728   -0.1332   -0.1711   -2.1874    1.1040
        8 C1     *200      -0.0009    0.0001   -0.0002   -0.0065    0.0047   -0.0016    0.0013    0.0155    0.0010   -0.0091
        9 C1     *110      -0.0002    0.0000    0.0001   -0.0076    0.0026    0.0233   -0.0227   -0.0126   -0.0075    0.0072
       10 C1     *020      -0.0006    0.0001   -0.0001    0.0116   -0.0102    0.0099   -0.0093   -0.0143    0.0132    0.0065
       11 C1     *002      -0.0012    0.0001   -0.0001   -0.0052    0.0053   -0.0029    0.0004   -0.0009   -0.0055   -0.0003
       12 C2     1s         0.0457    0.0295    0.9943   -0.1816   -0.0084    0.0779    0.0139   -0.0650   -0.0109   -0.0047
       13 C2     2s         0.0007    0.0005    0.0278    0.3503    0.0193   -0.1595   -0.0309    0.1239    0.1505    0.0042
       14 C2     *s         0.0090    0.0085   -0.0220    0.2673    0.0091   -0.0541   -0.0303   -0.0409   -2.5693    0.0859
       15 C2     2px        0.0001    0.0001   -0.0011   -0.0920   -0.0123    0.0996    0.0206    0.5155   -0.0980    0.0064
       16 C2     *px       -0.0027   -0.0027    0.0063   -0.0213   -0.0034   -0.0009    0.0040    0.5395    1.0686    0.1006
       17 C2     2py       -0.0001    0.0001   -0.0001    0.0298   -0.3140   -0.0394    0.3455   -0.0095   -0.0012   -0.0723
       18 C2     *py        0.0020   -0.0016   -0.0006    0.0022   -0.0443   -0.0021    0.0831   -0.0225   -0.2118   -0.0397
       19 C2     *200      -0.0003   -0.0003   -0.0013   -0.0039    0.0005   -0.0031   -0.0008   -0.0121    0.0036    0.0002
       20 C2     *110      -0.0000   -0.0001    0.0000   -0.0008    0.0156    0.0049   -0.0251    0.0029   -0.0024   -0.0139
       21 C2     *020      -0.0002   -0.0003   -0.0005    0.0111    0.0020    0.0027    0.0003    0.0015   -0.0204   -0.0042
       22 C2     *002      -0.0002   -0.0001   -0.0012   -0.0081   -0.0006    0.0031    0.0003    0.0043    0.0089    0.0016
       23 H3     1s         0.0003    0.0001   -0.0001   -0.0562    0.1197   -0.2515    0.1727    0.0381   -0.0434   -0.0090
       24 H3     *s        -0.0014    0.0005   -0.0010    0.0006    0.0254   -0.1409    0.1377   -0.0149   -2.2417    1.6935
       25 C4     1s         0.0412    0.9946   -0.0321   -0.0929   -0.1350   -0.0540   -0.0050    0.0507    0.0650    0.0964
       26 C4     2s         0.0012    0.0277   -0.0013    0.1826    0.2733    0.1101    0.0041   -0.1293   -0.1663   -0.1326
       27 C4     *s        -0.0038   -0.0204    0.0113    0.1307    0.2409    0.1017    0.0350   -0.0788    0.0210   -1.6929
       28 C4     2px       -0.0000   -0.0002   -0.0002    0.1015    0.1661    0.0748   -0.0048    0.0392   -0.0865   -0.0187
       29 C4     *px        0.0012    0.0032   -0.0015    0.0157    0.0718    0.0466   -0.0140    0.1096   -0.6068    0.1161
       30 C4     2py        0.0000    0.0002   -0.0003    0.0963    0.0209   -0.2334   -0.3741   -0.0749    0.1155    0.1206
       31 C4     *py       -0.0016   -0.0038    0.0052    0.0022   -0.0376   -0.1440   -0.1965    0.1596    1.9585    1.2112
       32 C4     *200      -0.0001   -0.0007   -0.0003   -0.0042   -0.0038   -0.0003   -0.0005    0.0139    0.0031    0.0066
       33 C4     *110      -0.0000    0.0002   -0.0002    0.0076    0.0012   -0.0218   -0.0344    0.0091    0.0073    0.0080
       34 C4     *020       0.0001   -0.0007   -0.0003    0.0107    0.0111    0.0047    0.0087   -0.0130    0.0110   -0.0042
       35 C4     *002      -0.0000   -0.0012   -0.0001   -0.0046   -0.0060   -0.0023   -0.0009   -0.0009   -0.0054    0.0004
       36 H5     1s        -0.0001   -0.0003    0.0000    0.0497    0.1364    0.1938    0.2322   -0.0359    0.0332   -0.0070
       37 H5     *s        -0.0003    0.0012    0.0009    0.0074    0.0326    0.1005    0.1757    0.0152    2.0651    1.8142

          Orbital           11    
          Energy            0.4134
          Occ. No.          0.0000

        1 C1     1s         0.0786
        2 C1     2s        -0.0854
        3 C1     *s        -1.4499
        4 C1     2px        0.3856
        5 C1     *px        1.9153
        6 C1     2py        0.1187
        7 C1     *py        0.7182
        8 C1     *200       0.0183
        9 C1     *110       0.0076
       10 C1     *020      -0.0174
       11 C1     *002      -0.0020
       12 C2     1s         0.0257
       13 C2     2s        -0.0049
       14 C2     *s        -0.5712
       15 C2     2px       -0.0478
       16 C2     *px       -0.1412
       17 C2     2py       -0.0315
       18 C2     *py        0.4250
       19 C2     *200      -0.0026
       20 C2     *110       0.0434
       21 C2     *020       0.0121
       22 C2     *002      -0.0029
       23 H3     1s         0.0507
       24 H3     *s         1.0222
       25 C4     1s        -0.0584
       26 C4     2s         0.0953
       27 C4     *s         1.2134
       28 C4     2px       -0.0908
       29 C4     *px       -1.1267
       30 C4     2py        0.2361
       31 C4     *py        1.1793
       32 C4     *200      -0.0060
       33 C4     *110       0.0074
       34 C4     *020       0.0085
       35 C4     *002       0.0016
       36 H5     1s         0.0079
       37 H5     *s         1.2194

      Molecular orbitals for symmetry species 3: a2 

          Orbital            1         2         3    
          Energy           -0.3644    0.1021    0.3688
          Occ. No.          2.0000    0.0000    0.0000

        1 C1     2pz        0.3025   -0.3844    0.3176
        2 C1     *pz        0.2355   -0.5872    0.8914
        3 C1     *101       0.0193   -0.0190    0.0038
        4 C1     *011      -0.0226   -0.0024    0.0310
        5 C2     2pz        0.4354    0.0433   -0.3784
        6 C2     *pz        0.3039    0.0704   -1.0218
        7 C2     *101      -0.0210   -0.0014   -0.0078
        8 C2     *011       0.0066   -0.0476    0.0001
        9 C4     2pz        0.2073    0.4104    0.3378
       10 C4     *pz        0.1658    0.6544    0.9590
       11 C4     *101       0.0169    0.0264    0.0090
       12 C4     *011       0.0189    0.0030   -0.0271

      Molecular orbitals for symmetry species 4: b2 

          Orbital            1         2         3    
          Energy           -0.5147   -0.3357    0.1825
          Occ. No.          2.0000    2.0000    0.0000

        1 C1     2pz        0.2922   -0.3724   -0.2215
        2 C1     *pz        0.1929   -0.3248   -0.5293
        3 C1     *101      -0.0039    0.0122    0.0313
        4 C1     *011      -0.0168    0.0039   -0.0351
        5 C2     2pz        0.3092   -0.0511    0.4472
        6 C2     *pz        0.1641   -0.0394    0.8579
        7 C2     *101      -0.0217    0.0013    0.0014
        8 C2     *011       0.0021   -0.0340   -0.0038
        9 C4     2pz        0.3099    0.4006   -0.1882
       10 C4     *pz        0.2033    0.3466   -0.4070
       11 C4     *101      -0.0102   -0.0227    0.0325
       12 C4     *011       0.0149   -0.0010    0.0320
--


++    Molecular charges:
      ------------------

      Mulliken charges per centre and basis function type
      ---------------------------------------------------

                C1      C2      H3      C4      H5    
      1s       1.9968  1.9970  0.5119  1.9968  0.5180
      2s       0.6937  0.6993  0.0000  0.6889  0.0000
      2px      0.5778  0.5834  0.0000  0.6693  0.0000
      2pz      0.5565  0.5204  0.0000  0.5329  0.0000
      2py      0.7912  0.7857  0.0000  0.7618  0.0000
      *s       0.5282  0.4269  0.2325  0.5128  0.2413
      *px      0.2860  0.4383  0.0000  0.2481  0.0000
      *110     0.0119  0.0155  0.0000  0.0153  0.0000
      *020     0.0443  0.0308  0.0000  0.0348  0.0000
      *002    -0.0190 -0.0156  0.0000 -0.0191  0.0000
      *200     0.0097 -0.0106  0.0000  0.0165  0.0000
      *pz      0.4950  0.3824  0.0000  0.4792  0.0000
      *py      0.3035  0.0858  0.0000  0.3105  0.0000
      *101     0.0039  0.0044  0.0000  0.0061  0.0000
      *011     0.0056  0.0097  0.0000  0.0041  0.0000
      Total    6.2850  5.9534  0.7444  6.2579  0.7593

      N-E     -0.2850  0.0466  0.2556 -0.2579  0.2407

      Total electronic charge=   40.000000

      Total            charge=   -0.000000
--


++    Molecular properties:
      ---------------------

      Charge (e):
                      =   -0.0000
      Dipole Moment (Debye):
      Origin of the operator (Ang)=    0.0000    0.0000    0.0000
                   X=  0.0000E+00               Y=  1.2605E-01               Z=  0.0000E+00           Total=  1.2605E-01
      Quadrupole Moment (Debye*Ang):
      Origin of the operator (Ang)=    0.0000    0.0000    0.0000
                  XX= -3.8119E+01              XY=  0.0000E+00              XZ=  0.0000E+00              YY= -2.4501E+01
                  YZ=  0.0000E+00              ZZ= -3.8170E+01
      In traceless form (Debye*Ang)
                  XX= -6.7833E+00              XY=  0.0000E+00              XZ=  0.0000E+00              YY=  1.3644E+01
                  YZ=  0.0000E+00              ZZ= -6.8603E+00
--


      Input file to MOLDEN was generated!

 ###############################################################################
 ###############################################################################
 ###                                                                         ###
 ###                                                                         ###
 ###    WARNING: RunFile label nBas                                          ###
 ###    was used       69 times                                              ###
 ###                                                                         ###
 ###                                                                         ###
 ###############################################################################
 ###############################################################################
--- Stop Module: last_energy at Sun Jul  7 15:33:23 2024 /rc=_RC_ALL_IS_WELL_ ---
*** files: ts.GssOrb ts.guessorb.molden ts.scf.molden ts.ScfOrb xmldump
    saved to directory /home/kenya/molcas_test/exercise_1
--- Module last_energy spent 2 seconds ---

>>> END DO

.##################.
.# Happy landing! #.
.##################.

    Timing: Wall=7.75 User=6.94 System=0.75
