   This run of MOLCAS is using the pymolcas driver

                             OPE
                             OPE          NMOL  CASOP  ENMOLC A   SO
                 OPE        NMOLC        AS  OP EN  MO LC     AS  OP
                OPENM       OL CA        SO  PE NM  OL CA     SOP EN
                OP EN      MO   LC       AS  OP ENMOL  CASO   PENMOL
                OP  EN     MO   LC       AS  OP EN     MO     LC ASO
               OP   E  NMOL  C  AS       OP  EN MO     LC     AS  OP
               OP  E   NMO   LC AS        OPEN  MO     LCASOP EN   M
               O  PEN   MO  LCA  SO
            OPE   NMO   L   CAS    OP
        OPENMOL  CASOP     ENMOL   CASOPE
     OPENMOLCA   SOPENMOLCASOPEN   MOLCASOPE
    OPENMOLCAS   OP           EN   MOL    CAS
    OPENMOLCAS       OP  ENM        O     LCA
    OPENMOLCAS    OPEN  MOLCASO     P  E  NMO
    OPENMOLCAS     OP               E  N  MOL
    OPENMOLCA   SO           PENM   O  L  CAS    OPEN    MO    LCAS
    OPENMOLCA   SOP           ENM   O  L  CAS   OP  EN  MOLC  AS   O
    OPENMOLCA   SOPE           NM      O  LCA   S      OP  EN MO
    OPENMOLC                AS         O  PEN   M      OL  CA  SOPE
    OPENMO        LCASOPE  NMOL        C  ASO   P      ENMOLC     AS
    OPE     NMO      LCA  SO     P     E   NM   OL  CA SO  PE N   MO
          OPENMOLCA            SOPE   NMO        LCAS  O    P  ENMO
     OPENMOLCASOPENMOLCASOPENMOLCASOPENMOLCA
        OPENMOLCASOPENMOLCASOPENMOLCASOPE
            OPENMOLCASOPENMOLCASOPENM
               OPENMOLCASOPENMOLCA        version: 24.02
                   OPENMOLCASO
                       OPE                tag: 428-g03afa2e9a

 OpenMolcas is free software; you can redistribute it and/or modify it
 under the terms of the GNU Lesser General Public License version 2.1.
 OpenMolcas is distributed in the hope that it will be useful, but it
 is provided "as is" and without any express or implied warranties.
 For more details see the full text of the license in the file
 LICENSE or in <http://www.gnu.org/licenses/>.

                 Copyright (C) The OpenMolcas Authors
           For the author list and the recommended citation,
                   consult the file CONTRIBUTORS.md

           *************************************************
           * pymolcas version py2.28                       *
           *   build c4a6d18ded8cb6cad61d2372a9abd97c      *
           *   (after the EMIL interpreter by V. Veryazov) *
           *************************************************

configuration info
------------------
Host name: DESKTOP-ET1S6F4 (Linux)
C Compiler ID: GNU
C flags: -std=gnu99 -fopenmp
Fortran Compiler ID: GNU
Fortran flags: -fno-aggressive-loop-optimizations -cpp -fdefault-integer-8 -fopenmp
Definitions: _WARNING_WORKAROUND_;_MOLCAS_;_I8_;_LINUX_
Parallel: OFF (GA=OFF)


   ----------------------------------------------------------------------
  |
  |           Project: ts
  |    Submitted from: /home/kenya/molcas_test/exercise_1
  |      Scratch area: /tmp/ts
  |   Save outputs to: /home/kenya/molcas_test/exercise_1
  |            Molcas: /home/kenya/OpenMolcas/builds/gnu_dev_omp
  |
  | Scratch area is NOT empty
  |
  |    MOLCAS_DRIVER = /home/kenya/OpenMolcas/builds/gnu_dev_omp/pymolcas
  |    MOLCAS_NPROCS = 1
  |    MOLCAS_SOURCE = /home/kenya/OpenMolcas
  | MOLCAS_STRUCTURE = 0
  |
   ----------------------------------------------------------------------

++ ---------   Input file   ---------

&GATEWAY
Coord = ts.Opt.xyz
  Basis = 6-31G*
  Group = Full
  NoCD

&SEWARD

&SCF

&RASSCF
  Inactive = 7 7 0 0
  RAS2   = 3 3 3 3
  nActEl = 12 0 0
  alter = 1
  2 9 11

-- ----------------------------------

--- Start Module: gateway at Mon Jul  8 12:44:51 2024 ---

()()()()()()()()()()()()()()()()()()()()()()()()()()()()()()()()()()()()()()()()()()()()()()()()()()

                                              &GATEWAY

                                   only a single process is used
                       available to each process: 2.0 GB of memory, 1 thread
                                            pid: 479240
()()()()()()()()()()()()()()()()()()()()()()()()()()()()()()()()()()()()()()()()()()()()()()()()()()

      Found SYMMETRY generators: xz z

++    Symmetry information:
      ---------------------

                    --- Group Generators ---
                    Rotation around the y-axis  
                    Reflection in the xy-plane  

                    Character Table for C2v

                             E   C2(y) s(xy) s(yz)
                    a1       1     1     1     1  y
                    b1       1    -1     1    -1  x, xy, Rz
                    a2       1     1    -1    -1  xz, Ry, I
                    b2       1    -1    -1     1  z, yz, Rx
--


++    Basis set information:
      ----------------------


      Basis set label: C.6-31G**....

      Electronic valence basis set:
      ------------------
      Associated Effective Charge   6.000000 au
      Associated Actual Charge      6.000000 au
      Nuclear Model: Point charge

      Shell  nPrim  nBasis  Cartesian Spherical Contaminant
         s      10       3        X                  
         p       4       2        X                  
         d       1       1        X                  


      Basis set label: H.6-31G....

      Electronic valence basis set:
      ------------------
      Associated Effective Charge   1.000000 au
      Associated Actual Charge      1.000000 au
      Nuclear Model: Point charge

      Shell  nPrim  nBasis  Cartesian Spherical Contaminant
         s       4       2        X                  


      Basis set label: C.6-31G**....

      Electronic valence basis set:
      ------------------
      Associated Effective Charge   6.000000 au
      Associated Actual Charge      6.000000 au
      Nuclear Model: Point charge

      Shell  nPrim  nBasis  Cartesian Spherical Contaminant
         s      10       3        X                  
         p       4       2        X                  
         d       1       1        X                  


      Basis set label: H.6-31G....

      Electronic valence basis set:
      ------------------
      Associated Effective Charge   1.000000 au
      Associated Actual Charge      1.000000 au
      Nuclear Model: Point charge

      Shell  nPrim  nBasis  Cartesian Spherical Contaminant
         s       4       2        X                  
--


++    Molecular structure info:
      -------------------------

                    ************************************************ 
                    **** Cartesian Coordinates / Bohr, Angstrom **** 
                    ************************************************ 

     Center  Label                x              y              z                     x              y              z
        1      C1               1.504608       2.235589       0.000000              0.796204       1.183023       0.000000
        2      C1              -1.504608       2.235589       0.000000             -0.796204       1.183023       0.000000
        3      C2               2.539082       0.018711       0.000000              1.343624       0.009902       0.000000
        4      C2              -2.539082       0.018711       0.000000             -1.343624       0.009902       0.000000
        5      H3              -2.224805       4.124735       0.000000             -1.177316       2.182716       0.000000
        6      H3               2.224805       4.124735       0.000000              1.177316       2.182716       0.000000
        7      C4               1.351866      -2.258198       0.000000              0.715377      -1.194987       0.000000
        8      C4              -1.351866      -2.258198       0.000000             -0.715377      -1.194987       0.000000
        9      H5               2.245870      -4.077899       0.000000              1.188463      -2.157931       0.000000
       10      H5              -2.245870      -4.077899       0.000000             -1.188463      -2.157931       0.000000

                    *************************************** 
                    *    InterNuclear Distances / Bohr    * 
                    *************************************** 

               1 C1            2 C1            3 C2            4 C2            5 H3            6 H3    
    1 C1       0.000000
    2 C1       3.009216        0.000000
    3 C2       2.446361        4.611505        0.000000
    4 C2       4.611505        2.446361        5.078164        0.000000
    5 H3       4.180597        2.021770        6.289201        4.118033        0.000000
    6 H3       2.021770        4.180597        4.118033        6.289201        4.449610        0.000000
    7 C4       4.496382        5.324807        2.567839        4.508192        7.316721        6.442348
    8 C4       5.324807        4.496382        4.508192        2.567839        6.442348        7.316721
    9 H5       6.356854        7.343446        4.107090        6.299046        9.341848        8.202660
   10 H5       7.343446        6.356854        6.299046        4.107090        8.202660        9.341848

               7 C4            8 C4            9 H5           10 H5    
    7 C4       0.000000
    8 C4       2.703733        0.000000
    9 H5       2.027450        4.031751        0.000000
   10 H5       4.031751        2.027450        4.491739        0.000000

                    ******************************************* 
                    *    InterNuclear Distances / Angstrom    * 
                    ******************************************* 

               1 C1            2 C1            3 C2            4 C2            5 H3            6 H3    
    1 C1       0.000000
    2 C1       1.592409        0.000000
    3 C2       1.294559        2.440303        0.000000
    4 C2       2.440303        1.294559        2.687249        0.000000
    5 H3       2.212277        1.069875        3.328102        2.179169        0.000000
    6 H3       1.069875        2.212277        2.179169        3.328102        2.354632        0.000000
    7 C4       2.379383        2.817766        1.358842        2.385632        3.871842        3.409144
    8 C4       2.817766        2.379383        2.385632        1.358842        3.409144        3.871842
    9 H5       3.363902        3.885985        2.173378        3.333311        4.943493        4.340661
   10 H5       3.885985        3.363902        3.333311        2.173378        4.340661        4.943493

               7 C4            8 C4            9 H5           10 H5    
    7 C4       0.000000
    8 C4       1.430754        0.000000
    9 H5       1.072880        2.133511        0.000000
   10 H5       2.133511        1.072880        2.376926        0.000000

                    ************************************** 
                    *    Valence Bond Angles / Degree    * 
                    ************************************** 
                          Atom centers                 Phi
                      3 C2       1 C1       6 H3       134.12
                      4 C2       2 C1       5 H3       134.12
                      1 C1       3 C2       7 C4       127.45
                      2 C1       4 C2       8 C4       127.45
                      3 C2       7 C4       8 C4       117.54
                      3 C2       7 C4       9 H5       126.30
                      8 C4       7 C4       9 H5       116.16
                      4 C2       8 C4       7 C4       117.54
                      4 C2       8 C4      10 H5       126.30
                      7 C4       8 C4      10 H5       116.16

           ***************************************************************
           *              Valence Dihedral Angles / Degree               *
           ***************************************************************
                    Atom centers                       Phi1     Phi2     Theta 
           6 H3       1 C1       3 C2       7 C4        134.12   127.45  -180.00
           5 H3       2 C1       4 C2       8 C4        134.12   127.45  -180.00
           1 C1       3 C2       7 C4       8 C4        127.45   117.54    -0.00
           1 C1       3 C2       7 C4       9 H5        127.45   126.30  -180.00
           2 C1       4 C2       8 C4       7 C4        127.45   117.54     0.00
           2 C1       4 C2       8 C4      10 H5        127.45   126.30  -180.00
           3 C2       7 C4       8 C4       4 C2        117.54   117.54    -0.00
           3 C2       7 C4       8 C4      10 H5        117.54   116.16  -180.00
           9 H5       7 C4       8 C4      10 H5        116.16   116.16    -0.00
           4 C2       8 C4       7 C4       9 H5        117.54   116.16  -180.00
--


            Nuclear Potential Energy            186.23618787 au

--- Stop Module: gateway at Mon Jul  8 12:44:52 2024 /rc=_RC_ALL_IS_WELL_ ---
*** files: xmldump
    saved to directory /home/kenya/molcas_test/exercise_1

--- Start Module: seward at Mon Jul  8 12:44:52 2024 ---

()()()()()()()()()()()()()()()()()()()()()()()()()()()()()()()()()()()()()()()()()()()()()()()()()()

                                              &SEWARD

                                   only a single process is used
                       available to each process: 2.0 GB of memory, 1 thread
                                            pid: 479244
()()()()()()()()()()()()()()()()()()()()()()()()()()()()()()()()()()()()()()()()()()()()()()()()()()

               SEWARD will generate:
                  Multipole Moment integrals up to order  2
                  Kinetic Energy integrals
                  Nuclear Attraction integrals (point charge)
                  One-Electron Hamiltonian integrals
                  Velocity integrals
                  Orbital angular momentum around ( 0.0000  0.0000  0.0000 )
                  Velocity quadrupole around ( 0.0000  0.0000  0.0000 )
                  Two-Electron Repulsion integrals

                   Integrals are discarded if absolute value <: 1.00E-14
                   Integral cutoff threshold is set to       <: 1.00E-16

                    Unitary symmetry adaptation


            Nuclear Potential Energy            186.23618787 au


      Basis set specifications :
      Symmetry species         a1   b1   a2   b2 
      Basis functions           37   37   12   12


      Input file to MOLDEN was generated!

--- Stop Module: seward at Mon Jul  8 12:44:53 2024 /rc=_RC_ALL_IS_WELL_ ---
*** files: ts.GssOrb ts.guessorb.molden xmldump
    saved to directory /home/kenya/molcas_test/exercise_1
--- Module seward spent 1 second ---

--- Start Module: scf at Mon Jul  8 12:44:53 2024 ---

()()()()()()()()()()()()()()()()()()()()()()()()()()()()()()()()()()()()()()()()()()()()()()()()()()

                                                &SCF

                                   only a single process is used
                       available to each process: 2.0 GB of memory, 1 thread
                                            pid: 479290
()()()()()()()()()()()()()()()()()()()()()()()()()()()()()()()()()()()()()()()()()()()()()()()()()()

++    Input section:
      --------------

      Header of the integral files:
      
       Integrals generated by Gateway/Seward, Mon Jul  8 12:44:52 2024


      Cartesian coordinates in Angstrom:
      -----------------------------------------------------
      No.  Label        X            Y            Z        
      -----------------------------------------------------
       1   C1         0.79620437   1.18302262   0.00000000
       2   C2         1.34362438   0.00990155   0.00000000
       3   H3        -1.17731607   2.18271563   0.00000000
       4   C4         0.71537694  -1.19498676   0.00000000
       5   H5         1.18846301  -2.15793100   0.00000000
       6   C1        -0.79620437   1.18302262   0.00000000
       7   C2        -1.34362438   0.00990155   0.00000000
       8   H3         1.17731607   2.18271563   0.00000000
       9   C4        -0.71537694  -1.19498676   0.00000000
      10   H5        -1.18846301  -2.15793100   0.00000000
      -----------------------------------------------------
      Nuclear repulsion energy =  186.23618787
--

++    Orbital specifications:
      -----------------------

      Symmetry species               1   2   3   4
                                    a1  b1  a2  b2
      Frozen orbitals                0   0   0   0
      Aufbau                        20
      Start temperature = 0.500
      End temperature   = 0.010
      Temperature Factor= 0.460
      Deleted orbitals               0   0   0   0
      Total number of orbitals      37  37  12  12
      Number of basis functions     37  37  12  12
--

      Molecular charge                           0.000

++    Optimization specifications:
      ----------------------------

      SCF Algorithm: Conventional
      Minimized density differences are used
      Number of density matrices in core                 5
      Maximum number of NDDO SCF iterations            400
      Maximum number of HF SCF iterations              400
      Threshold for SCF energy change             1.00E-09
      Threshold for density matrix                1.00E-04
      Threshold for Fock matrix                   1.50E-04
      Threshold for linear dependence             1.00E-09
      Threshold at which DIIS is turned on        1.50E-01
      Maximum depth in the DIIS procedure                5
      Maximum depth in the BFGS Hessian update          30
      Threshold at which QNR/C2DIIS is turned on  7.50E-02
      Threshold for Norm(delta) (QNR/C2DIIS)      1.00E-03
      All orbitals punched on: SCFORB
--

      Detected guessorb starting orbitals                                             


++ Convergence information
                                   SCF        iterations: Energy and convergence statistics

Iter     Tot. SCF        One-elec.       Two-elec.     Energy      Max Dij or  Max Fij      DNorm      TNorm      AccCon     Time
         Energy          Energy          Energy        Change      Delta Norm                                                in Sec.
   1  -219.102194992  -670.339895045   265.001512186   0.00E+00    7.88E-02*   4.75E-01*    9.94E+00   2.59E+02   None         0.
   2  -225.020216807  -666.301357391   255.044952717  -5.92E+00*   9.47E-02*   6.43E-02*    2.56E+01   2.54E+02   EDIIS        0.
   3  -228.502697974  -680.220235766   265.481349925  -3.48E+00*   1.08E-01*   1.09E-01*    5.64E+00   2.59E+02   EDIIS        0.
   4  -229.111115963  -675.448408275   260.101104445  -6.08E-01*   5.03E-02*   4.23E-02*    1.86E+00   2.57E+02   EDIIS        0.
   5  -229.257078691  -677.837927596   262.344661039  -1.46E-01*   4.87E-02*   2.22E-02*    9.06E-01   2.58E+02   EDIIS        0.
   6  -229.269276905  -676.799123081   261.293658309  -1.22E-02*   1.86E-02*   1.38E-02*    2.00E-01   2.57E+02   EDIIS        0.
   7  -229.270198317  -677.264632573   261.758246389  -9.21E-04*   1.94E-02*   1.18E-02*    1.16E-01   2.57E+02   EDIIS        0.

       Fermi aufbau procedure completed!
      nOcc=    9    8    1    2

   8  -229.270443983  -677.057069023   261.550437173  -2.46E-04*   9.83E-03*   7.10E-03*    4.24E-02   2.57E+02   EDIIS        0.
   9  -229.270576336  -677.137565177   261.630800974  -1.32E-04*   8.83E-03*   4.52E-03*    1.21E-02   2.57E+02   EDIIS        0.
  10  -229.270604706  -677.118477827   261.611685255  -2.84E-05*   3.65E-03*   2.68E-03*    5.98E-03   2.57E+02   EDIIS        0.
  11  -229.270627228  -677.122168531   261.615353436  -2.25E-05*   3.42E-03*   7.97E-04*    1.15E-03   2.57E+02   EDIIS        0.
  12  -229.270628923  -677.123433822   261.616617033  -1.69E-06*   8.78E-04*   3.38E-04*    3.29E-04   2.57E+02   c2DIIS       0.
  13  -229.270632463  -677.122875010   261.616054680  -3.54E-06*   4.27E-04    1.38E-04     4.37E-05   2.57E+02   QNRc2DIIS    0.
  14  -229.270632794  -677.122942845   261.616122184  -3.31E-07*   6.82E-04    8.46E-05     1.33E-05   2.57E+02   QNRc2DIIS    0.
  15  -229.270632980  -677.122892822   261.616071975  -1.86E-07*   5.23E-05    2.69E-05     4.59E-03   2.57E+02   QNRc2DIIS    0.
  16  -229.270632988  -677.122954720   261.616133865  -7.71E-09*   7.05E-06    5.24E-06     5.06E-03   2.57E+02   QNRc2DIIS    0.
  17  -229.270632988  -677.122960871   261.616140016  -2.12E-10    2.29E-05    3.09E-06     4.27E-03   2.57E+02   QNRc2DIIS    0.

       Convergence after  17 Macro Iterations
--

 *****************************************************************************************************************************
 *                                                                                                                           *
 *                                             SCF/KS-DFT Program, Final results                                             *
 *                                                                                                                           *
 *                                                                                                                           *
 *                                                                                                                           *
 *                                                       Final Results                                                       *
 *                                                                                                                           *
 *****************************************************************************************************************************

::    Total SCF energy                               -229.2706329881
      One-electron energy                            -677.1229608712
      Two-electron energy                             261.6161400162
      Nuclear repulsion energy                        186.2361878669
      Kinetic energy (interpolated)                   229.1131177300
      Virial theorem                                    1.0006875000
      Total spin, S(S+1)                                0.0000000000
      Total spin, S                                     0.0000000000
      Max non-diagonal density matrix element           0.0000282372
      Max non-diagonal Fock matrix element              0.0000043043


      All orbitals with orbital energies smaller than  E(LUMO)+0.5 are printed

++    Molecular orbitals:
      -------------------

      Title: SCF orbitals

      Molecular orbitals for symmetry species 1: a1 

          Orbital            1         2         3         4         5         6         7         8         9        10    
          Energy          -11.2659  -11.2656  -11.2428   -1.1617   -1.0185   -0.7966   -0.6547   -0.6418   -0.5423   -0.0009
          Occ. No.          2.0000    2.0000    2.0000    2.0000    2.0000    2.0000    2.0000    2.0000    2.0000    0.0000

        1 C1     1s         0.9934   -0.0489   -0.0443   -0.1213    0.1537   -0.0671    0.0171    0.0130    0.0239    0.0102
        2 C1     2s         0.0272   -0.0015   -0.0018    0.2300   -0.2945    0.1343   -0.0314   -0.0295   -0.0501    0.0117
        3 C1     *s        -0.0092    0.0006    0.0061    0.1509   -0.2451    0.1249   -0.0486   -0.0183   -0.0643   -0.2609
        4 C1     2px       -0.0001    0.0000   -0.0001   -0.0228    0.0321   -0.0792   -0.1413    0.2057    0.4342    0.2617
        5 C1     *px       -0.0007    0.0001    0.0001   -0.0095    0.0099   -0.0276   -0.0630    0.0889    0.2131    0.1929
        6 C1     2py        0.0001    0.0000    0.0003   -0.0886    0.0141    0.2869    0.3060    0.1188    0.1126   -0.0775
        7 C1     *py        0.0007   -0.0002   -0.0033   -0.0082   -0.0086    0.1153    0.1245    0.0538    0.0713   -0.0319
        8 C1     *200      -0.0016    0.0001   -0.0001    0.0036   -0.0070    0.0057    0.0011   -0.0046   -0.0117   -0.0168
        9 C1     *110      -0.0001   -0.0000    0.0002   -0.0016    0.0004    0.0095    0.0129   -0.0031   -0.0041    0.0245
       10 C1     *020      -0.0008    0.0001   -0.0001    0.0076   -0.0076    0.0056    0.0060    0.0043    0.0106    0.0167
       11 C1     *002      -0.0014    0.0000   -0.0000   -0.0064    0.0075   -0.0032    0.0005    0.0005   -0.0001    0.0004
       12 C2     1s         0.0449    0.0278    0.9943   -0.1358    0.0220    0.1154    0.0114   -0.0815   -0.0275    0.0469
       13 C2     2s         0.0007    0.0005    0.0274    0.2583   -0.0416   -0.2319   -0.0211    0.1671    0.0560   -0.0576
       14 C2     *s         0.0036    0.0031   -0.0155    0.1418   -0.0255   -0.1342   -0.0058    0.2034    0.0765   -0.2700
       15 C2     2px        0.0002    0.0002   -0.0011   -0.1032    0.0066    0.0566   -0.0370    0.1691    0.0888   -0.4427
       16 C2     *px       -0.0007   -0.0007    0.0040   -0.0110   -0.0023   -0.0170   -0.0191    0.0791    0.0489   -0.5520
       17 C2     2py       -0.0002    0.0002   -0.0001    0.0017   -0.1948    0.0126   -0.3708   -0.1010    0.1305    0.0334
       18 C2     *py        0.0017   -0.0015   -0.0003   -0.0028   -0.0123    0.0135   -0.0615   -0.0225    0.0366    0.0219
       19 C2     *200      -0.0002   -0.0002   -0.0013   -0.0004    0.0012    0.0006    0.0026   -0.0127   -0.0042    0.0030
       20 C2     *110      -0.0000   -0.0000    0.0000    0.0011    0.0163    0.0006    0.0241    0.0032    0.0163    0.0029
       21 C2     *020      -0.0001   -0.0002   -0.0005    0.0072    0.0002   -0.0040   -0.0013    0.0112    0.0032    0.0086
       22 C2     *002      -0.0001   -0.0001   -0.0013   -0.0071    0.0006    0.0044    0.0000   -0.0004    0.0004   -0.0033
       23 H3     1s        -0.0004    0.0000    0.0000    0.0454   -0.0997    0.1790    0.1243    0.0930    0.1473    0.1235
       24 H3     *s         0.0019    0.0001    0.0007    0.0037   -0.0195    0.0779    0.0841    0.0590    0.1101    0.3007
       25 C4     1s         0.0476    0.9939   -0.0305   -0.1385   -0.1538   -0.0546   -0.0135    0.0122   -0.0185    0.0062
       26 C4     2s         0.0011    0.0273   -0.0013    0.2660    0.2993    0.1095    0.0290   -0.0313    0.0415    0.0115
       27 C4     *s        -0.0001   -0.0088    0.0051    0.1678    0.2435    0.1057    0.0383    0.0106    0.0389   -0.1880
       28 C4     2px       -0.0000    0.0001   -0.0001   -0.0485   -0.0798   -0.1112    0.0620    0.4269   -0.3160    0.2173
       29 C4     *px        0.0001   -0.0008    0.0000   -0.0094   -0.0072   -0.0248    0.0288    0.1696   -0.1377    0.1209
       30 C4     2py       -0.0001    0.0001   -0.0004    0.0798   -0.0230   -0.2582    0.3492   -0.0736    0.0929    0.0877
       31 C4     *py        0.0002   -0.0008    0.0027    0.0081   -0.0154   -0.0959    0.1402   -0.0415    0.0560    0.0245
       32 C4     *200      -0.0001   -0.0013   -0.0002    0.0058    0.0090    0.0057   -0.0000   -0.0075    0.0085   -0.0132
       33 C4     *110      -0.0000    0.0001   -0.0003    0.0014   -0.0031   -0.0107    0.0108    0.0055    0.0030   -0.0238
       34 C4     *020       0.0000   -0.0010   -0.0002    0.0066    0.0031   -0.0002   -0.0054    0.0099   -0.0121    0.0159
       35 C4     *002      -0.0001   -0.0014   -0.0001   -0.0074   -0.0072   -0.0022   -0.0004   -0.0001    0.0005    0.0007
       36 H5     1s        -0.0000   -0.0003    0.0000    0.0536    0.1005    0.1367   -0.1541    0.1351   -0.1320    0.1076
       37 H5     *s         0.0003    0.0018    0.0006    0.0049    0.0177    0.0581   -0.1017    0.0852   -0.1050    0.2471

          Orbital           11        12        13    
          Energy            0.2557    0.2763    0.4468
          Occ. No.          0.0000    0.0000    0.0000

        1 C1     1s         0.0788    0.0489   -0.0537
        2 C1     2s        -0.1257   -0.0236   -0.0301
        3 C1     *s        -0.9776   -1.3952    1.8833
        4 C1     2px       -0.1537   -0.0867   -0.0524
        5 C1     *px       -0.4550   -0.4835    0.3786
        6 C1     2py       -0.1268   -0.2052   -0.0594
        7 C1     *py       -0.7730   -0.5763   -1.8668
        8 C1     *200      -0.0022   -0.0001    0.0118
        9 C1     *110      -0.0020    0.0003    0.0118
       10 C1     *020       0.0067   -0.0006   -0.0069
       11 C1     *002       0.0000    0.0037   -0.0059
       12 C2     1s        -0.0267   -0.0091    0.1502
       13 C2     2s         0.0578    0.0192   -0.1659
       14 C2     *s        -0.1082    0.0913   -4.8308
       15 C2     2px        0.0243   -0.0073    0.0331
       16 C2     *px        0.5677   -0.0465    1.7280
       17 C2     2py        0.0022    0.0268    0.0605
       18 C2     *py       -0.0418    0.4556    0.1077
       19 C2     *200       0.0090   -0.0009    0.0008
       20 C2     *110      -0.0028   -0.0203   -0.0014
       21 C2     *020      -0.0181    0.0012   -0.0218
       22 C2     *002       0.0034   -0.0000    0.0021
       23 H3     1s         0.0053   -0.0027   -0.0482
       24 H3     *s         1.6049    1.5262    0.7979
       25 C4     1s         0.0707   -0.0519   -0.0677
       26 C4     2s        -0.1188    0.0293   -0.0104
       27 C4     *s        -0.9284    1.4430    2.1589
       28 C4     2px       -0.1613    0.1086   -0.0328
       29 C4     *px       -0.4773    0.5858    0.6717
       30 C4     2py        0.0882   -0.2336    0.0554
       31 C4     *py        0.5885   -0.6942    1.7548
       32 C4     *200      -0.0019   -0.0006    0.0123
       33 C4     *110      -0.0005    0.0096   -0.0282
       34 C4     *020       0.0072    0.0008   -0.0075
       35 C4     *002      -0.0011   -0.0030   -0.0047
       36 H5     1s         0.0073   -0.0090    0.0197
       37 H5     *s         1.3889   -1.7508    0.4718

      Molecular orbitals for symmetry species 2: b1 

          Orbital            1         2         3         4         5         6         7         8         9        10    
          Energy          -11.2655  -11.2647  -11.2429   -1.0210   -0.8509   -0.6634   -0.5568   -0.2754    0.3025    0.3203
          Occ. No.          2.0000    2.0000    2.0000    2.0000    2.0000    2.0000    2.0000    2.0000    0.0000    0.0000

        1 C1     1s         0.9939   -0.0427   -0.0454   -0.1185    0.1254   -0.0585   -0.0081    0.0618    0.0677   -0.0992
        2 C1     2s         0.0273   -0.0011   -0.0019    0.2332   -0.2524    0.1182    0.0199   -0.1520   -0.1637    0.1188
        3 C1     *s        -0.0190   -0.0023    0.0118    0.1616   -0.2279    0.1276   -0.0062   -0.0851    0.0640    1.7705
        4 C1     2px       -0.0001   -0.0000   -0.0002    0.1026   -0.1269    0.0615    0.0318    0.1023   -0.0785   -0.0942
        5 C1     *px        0.0026    0.0007   -0.0010    0.0174   -0.0436    0.0251    0.0249    0.1687   -0.3346   -0.4841
        6 C1     2py       -0.0000   -0.0000    0.0003   -0.1203    0.0147    0.3349   -0.3011    0.0853   -0.1475    0.1471
        7 C1     *py        0.0035    0.0016   -0.0059    0.0141   -0.0445    0.1728   -0.1332   -0.1711   -2.1874    1.1040
        8 C1     *200      -0.0009    0.0001   -0.0002   -0.0065    0.0047   -0.0016    0.0013    0.0155    0.0010   -0.0091
        9 C1     *110      -0.0002    0.0000    0.0001   -0.0076    0.0026    0.0233   -0.0227   -0.0126   -0.0075    0.0072
       10 C1     *020      -0.0006    0.0001   -0.0001    0.0116   -0.0102    0.0099   -0.0093   -0.0143    0.0132    0.0065
       11 C1     *002      -0.0012    0.0001   -0.0001   -0.0052    0.0053   -0.0029    0.0004   -0.0009   -0.0055   -0.0003
       12 C2     1s         0.0457    0.0295    0.9943   -0.1816   -0.0084    0.0779    0.0139   -0.0650   -0.0109   -0.0047
       13 C2     2s         0.0007    0.0005    0.0278    0.3503    0.0193   -0.1595   -0.0309    0.1239    0.1505    0.0042
       14 C2     *s         0.0090    0.0085   -0.0220    0.2673    0.0091   -0.0541   -0.0303   -0.0409   -2.5693    0.0859
       15 C2     2px        0.0001    0.0001   -0.0011   -0.0920   -0.0123    0.0996    0.0206    0.5155   -0.0980    0.0064
       16 C2     *px       -0.0027   -0.0027    0.0063   -0.0213   -0.0034   -0.0009    0.0040    0.5395    1.0686    0.1006
       17 C2     2py       -0.0001    0.0001   -0.0001    0.0298   -0.3140   -0.0394    0.3455   -0.0095   -0.0012   -0.0723
       18 C2     *py        0.0020   -0.0016   -0.0006    0.0022   -0.0443   -0.0021    0.0831   -0.0225   -0.2118   -0.0397
       19 C2     *200      -0.0003   -0.0003   -0.0013   -0.0039    0.0005   -0.0031   -0.0008   -0.0121    0.0036    0.0002
       20 C2     *110      -0.0000   -0.0001    0.0000   -0.0008    0.0156    0.0049   -0.0251    0.0029   -0.0024   -0.0139
       21 C2     *020      -0.0002   -0.0003   -0.0005    0.0111    0.0020    0.0027    0.0003    0.0015   -0.0204   -0.0042
       22 C2     *002      -0.0002   -0.0001   -0.0012   -0.0081   -0.0006    0.0031    0.0003    0.0043    0.0089    0.0016
       23 H3     1s         0.0003    0.0001   -0.0001   -0.0562    0.1197   -0.2515    0.1727    0.0381   -0.0434   -0.0090
       24 H3     *s        -0.0014    0.0005   -0.0010    0.0006    0.0254   -0.1409    0.1377   -0.0149   -2.2417    1.6935
       25 C4     1s         0.0413    0.9946   -0.0321   -0.0929   -0.1350   -0.0540   -0.0050    0.0507    0.0650    0.0964
       26 C4     2s         0.0012    0.0277   -0.0013    0.1826    0.2733    0.1101    0.0041   -0.1293   -0.1663   -0.1326
       27 C4     *s        -0.0038   -0.0204    0.0113    0.1307    0.2409    0.1017    0.0350   -0.0788    0.0210   -1.6929
       28 C4     2px       -0.0000   -0.0002   -0.0002    0.1015    0.1661    0.0748   -0.0048    0.0392   -0.0865   -0.0187
       29 C4     *px        0.0012    0.0032   -0.0015    0.0157    0.0718    0.0466   -0.0140    0.1096   -0.6068    0.1161
       30 C4     2py        0.0000    0.0002   -0.0003    0.0963    0.0209   -0.2334   -0.3741   -0.0749    0.1155    0.1206
       31 C4     *py       -0.0016   -0.0038    0.0052    0.0022   -0.0376   -0.1440   -0.1965    0.1596    1.9585    1.2112
       32 C4     *200      -0.0001   -0.0007   -0.0003   -0.0042   -0.0038   -0.0003   -0.0005    0.0139    0.0031    0.0066
       33 C4     *110      -0.0000    0.0002   -0.0002    0.0076    0.0012   -0.0218   -0.0344    0.0091    0.0073    0.0080
       34 C4     *020       0.0001   -0.0007   -0.0003    0.0107    0.0111    0.0047    0.0087   -0.0130    0.0110   -0.0042
       35 C4     *002      -0.0000   -0.0012   -0.0001   -0.0046   -0.0060   -0.0023   -0.0009   -0.0009   -0.0054    0.0004
       36 H5     1s        -0.0001   -0.0003    0.0000    0.0497    0.1364    0.1938    0.2322   -0.0359    0.0332   -0.0070
       37 H5     *s        -0.0003    0.0012    0.0009    0.0074    0.0326    0.1005    0.1757    0.0152    2.0651    1.8142

          Orbital           11    
          Energy            0.4134
          Occ. No.          0.0000

        1 C1     1s         0.0786
        2 C1     2s        -0.0854
        3 C1     *s        -1.4499
        4 C1     2px        0.3856
        5 C1     *px        1.9153
        6 C1     2py        0.1187
        7 C1     *py        0.7182
        8 C1     *200       0.0183
        9 C1     *110       0.0076
       10 C1     *020      -0.0174
       11 C1     *002      -0.0020
       12 C2     1s         0.0257
       13 C2     2s        -0.0049
       14 C2     *s        -0.5712
       15 C2     2px       -0.0478
       16 C2     *px       -0.1412
       17 C2     2py       -0.0315
       18 C2     *py        0.4250
       19 C2     *200      -0.0026
       20 C2     *110       0.0434
       21 C2     *020       0.0121
       22 C2     *002      -0.0029
       23 H3     1s         0.0507
       24 H3     *s         1.0222
       25 C4     1s        -0.0584
       26 C4     2s         0.0953
       27 C4     *s         1.2134
       28 C4     2px       -0.0908
       29 C4     *px       -1.1267
       30 C4     2py        0.2361
       31 C4     *py        1.1793
       32 C4     *200      -0.0060
       33 C4     *110       0.0074
       34 C4     *020       0.0085
       35 C4     *002       0.0016
       36 H5     1s         0.0079
       37 H5     *s         1.2194

      Molecular orbitals for symmetry species 3: a2 

          Orbital            1         2         3    
          Energy           -0.3644    0.1021    0.3688
          Occ. No.          2.0000    0.0000    0.0000

        1 C1     2pz        0.3025   -0.3844    0.3176
        2 C1     *pz        0.2355   -0.5872    0.8914
        3 C1     *101       0.0193   -0.0190    0.0038
        4 C1     *011      -0.0226   -0.0024    0.0310
        5 C2     2pz        0.4354    0.0433   -0.3784
        6 C2     *pz        0.3039    0.0704   -1.0218
        7 C2     *101      -0.0210   -0.0014   -0.0078
        8 C2     *011       0.0066   -0.0476    0.0001
        9 C4     2pz        0.2073    0.4104    0.3378
       10 C4     *pz        0.1658    0.6544    0.9590
       11 C4     *101       0.0169    0.0264    0.0090
       12 C4     *011       0.0189    0.0030   -0.0271

      Molecular orbitals for symmetry species 4: b2 

          Orbital            1         2         3    
          Energy           -0.5147   -0.3357    0.1825
          Occ. No.          2.0000    2.0000    0.0000

        1 C1     2pz        0.2922   -0.3724   -0.2215
        2 C1     *pz        0.1929   -0.3248   -0.5293
        3 C1     *101      -0.0039    0.0122    0.0313
        4 C1     *011      -0.0168    0.0039   -0.0351
        5 C2     2pz        0.3092   -0.0511    0.4472
        6 C2     *pz        0.1641   -0.0394    0.8579
        7 C2     *101      -0.0217    0.0013    0.0014
        8 C2     *011       0.0021   -0.0340   -0.0038
        9 C4     2pz        0.3099    0.4006   -0.1882
       10 C4     *pz        0.2033    0.3466   -0.4070
       11 C4     *101      -0.0102   -0.0227    0.0325
       12 C4     *011       0.0149   -0.0010    0.0320
--


++    Molecular charges:
      ------------------

      Mulliken charges per centre and basis function type
      ---------------------------------------------------

                C1      C2      H3      C4      H5    
      1s       1.9968  1.9970  0.5119  1.9968  0.5180
      2s       0.6937  0.6993  0.0000  0.6889  0.0000
      2px      0.5778  0.5834  0.0000  0.6693  0.0000
      2pz      0.5565  0.5204  0.0000  0.5329  0.0000
      2py      0.7912  0.7857  0.0000  0.7618  0.0000
      *s       0.5282  0.4269  0.2325  0.5128  0.2413
      *px      0.2860  0.4383  0.0000  0.2481  0.0000
      *110     0.0119  0.0155  0.0000  0.0153  0.0000
      *020     0.0443  0.0308  0.0000  0.0348  0.0000
      *002    -0.0190 -0.0156  0.0000 -0.0191  0.0000
      *200     0.0097 -0.0106  0.0000  0.0165  0.0000
      *pz      0.4950  0.3824  0.0000  0.4792  0.0000
      *py      0.3035  0.0858  0.0000  0.3105  0.0000
      *101     0.0039  0.0044  0.0000  0.0061  0.0000
      *011     0.0056  0.0097  0.0000  0.0041  0.0000
      Total    6.2850  5.9534  0.7444  6.2579  0.7593

      N-E     -0.2850  0.0466  0.2556 -0.2579  0.2407

      Total electronic charge=   40.000000

      Total            charge=   -0.000000
--


++    Molecular properties:
      ---------------------

      Charge (e):
                      =   -0.0000
      Dipole Moment (Debye):
      Origin of the operator (Ang)=    0.0000    0.0000    0.0000
                   X=  0.0000E+00               Y=  1.2605E-01               Z=  0.0000E+00           Total=  1.2605E-01
      Quadrupole Moment (Debye*Ang):
      Origin of the operator (Ang)=    0.0000    0.0000    0.0000
                  XX= -3.8119E+01              XY=  0.0000E+00              XZ=  0.0000E+00              YY= -2.4501E+01
                  YZ=  0.0000E+00              ZZ= -3.8170E+01
      In traceless form (Debye*Ang)
                  XX= -6.7833E+00              XY=  0.0000E+00              XZ=  0.0000E+00              YY=  1.3644E+01
                  YZ=  0.0000E+00              ZZ= -6.8603E+00
--


      Input file to MOLDEN was generated!

 ###############################################################################
 ###############################################################################
 ###                                                                         ###
 ###                                                                         ###
 ###    WARNING: RunFile label nBas                                          ###
 ###    was used       59 times                                              ###
 ###                                                                         ###
 ###                                                                         ###
 ###############################################################################
 ###############################################################################
--- Stop Module: scf at Mon Jul  8 12:44:55 2024 /rc=_RC_ALL_IS_WELL_ ---
*** files: ts.scf.molden ts.ScfOrb xmldump
    saved to directory /home/kenya/molcas_test/exercise_1
--- Module scf spent 1 second ---

--- Start Module: rasscf at Mon Jul  8 12:44:55 2024 ---

()()()()()()()()()()()()()()()()()()()()()()()()()()()()()()()()()()()()()()()()()()()()()()()()()()

                                              &RASSCF

                                   only a single process is used
                       available to each process: 2.0 GB of memory, 1 thread
                                            pid: 479305
()()()()()()()()()()()()()()()()()()()()()()()()()()()()()()()()()()()()()()()()()()()()()()()()()()


      Header of the ONEINT file:
      --------------------------
      
      Integrals generated by Gateway/Seward, Mon Jul  8 12:44:52 2024


      OrdInt status: non-squared


      Cartesian coordinates in Angstrom:
      -----------------------------------------------------
      No.  Label        X            Y            Z        
      -----------------------------------------------------
       1   C1         0.79620437   1.18302262   0.00000000
       2   C2         1.34362438   0.00990155   0.00000000
       3   H3        -1.17731607   2.18271563   0.00000000
       4   C4         0.71537694  -1.19498676   0.00000000
       5   H5         1.18846301  -2.15793100   0.00000000
       6   C1        -0.79620437   1.18302262   0.00000000
       7   C2        -1.34362438   0.00990155   0.00000000
       8   H3         1.17731607   2.18271563   0.00000000
       9   C4        -0.71537694  -1.19498676   0.00000000
      10   H5        -1.18846301  -2.15793100   0.00000000
      -----------------------------------------------------
      Nuclear repulsion energy =  186.23618787

++    Wave function specifications:
      -----------------------------

      Number of closed shell electrons          28
      Number of electrons in active shells      12
      Max number of holes in RAS1 space          0
      Max nr of electrons in RAS3 space          0
      Number of inactive orbitals               14
      Number of active orbitals                 12
      Number of secondary orbitals              72
      Spin quantum number                      0.0
      State symmetry                             1
--

++    Orbital specifications:
      -----------------------

      Symmetry species                           1   2   3   4
                                                a1  b1  a2  b2
      Frozen orbitals                            0   0   0   0
      Inactive orbitals                          7   7   0   0
      Active orbitals                            3   3   3   3
      RAS1 orbitals                              0   0   0   0
      RAS2 orbitals                              3   3   3   3
      RAS3 orbitals                              0   0   0   0
      Secondary orbitals                        27  27   9   9
      Deleted orbitals                           0   0   0   0
      Number of basis functions                 37  37  12  12
--

++    CI expansion specifications:
      ----------------------------

      Number of CSFs                         56928
      Number of determinants                107334
      Number of root(s) required                 1
      Root chosen for geometry opt.              1
      CI root used                               1
         
      highest root included in the CI            1
      max. size of the explicit Hamiltonian    200
--

++    Optimization specifications:
      ----------------------------

      RASSCF algorithm: Conventional
      Maximum number of macro iterations       200
      Maximum number of SX iterations          100
      Threshold for RASSCF energy            1.000E-08
      Threshold for max MO rotation          1.000E-01
      Threshold for max BLB element          1.000E-04
      Level shift parameter                  5.000E-01
      Make Quasi-Newton update
--

      Orbitals from runfile: scf orbitals
      The MO-coefficients are taken from scf orbitals on runfile

      Total molecular charge    0.00

      Molecular orbitals exchanged:
        In symmetry  2 :   9  11


      ************************************************************************************************************************
      *                                                                                                                      *
      *                                            Wave function control section                                             *
      *                                                                                                                      *
      ************************************************************************************************************************


                                         RASSCF iterations: Energy and convergence statistics
                                         ----------------------------------------------------

      Iter CI   SX   CI       RASSCF       Energy    max ROT     max BLB   max BLB  Level Ln srch  Step   QN   Walltime
          iter iter root      energy       change     param      element    value   shift minimum  type update hh:mm:ss
 Nr of preliminary CI iterations:   5
        1   1   51    1  -229.43816119    0.00E+00   2.50E-01*  10  18 1 -4.89E-02*  0.03   0.00    SX    NO    0:00:03
        2   5   33    1  -229.48478265   -4.66E-02*  4.47E-01*   8  12 2  1.42E-02*  0.07   0.00    SX    NO    0:00:02
        3   4   20    1  -229.49615761   -1.14E-02* -4.76E-01*   4  10 1 -6.78E-03*  0.06   0.00    SX    NO    0:00:01
        4   6   33    1  -229.51001553   -1.39E-02*  1.98E-01*  10  12 2  5.35E-03*  0.06   0.00    SX    NO    0:00:02
        5   4   13    1  -229.51626102   -6.25E-03*  1.18E-01*   4  10 1 -3.79E-03*  0.06   1.73    QN   YES    0:00:02
        6   4   12    1  -229.51903607   -2.78E-03* -4.17E-02    5  10 2  2.70E-03*  0.07   1.25    QN   YES    0:00:02
        7   4   11    1  -229.51955735   -5.21E-04* -3.15E-02    5  10 2  2.50E-03*  0.07   1.63    QN   YES    0:00:02
        8   4   10    1  -229.51984343   -2.86E-04* -1.37E-02   10  12 2 -1.12E-03*  0.07   1.47    LS   YES    0:00:02
        9   4    9    1  -229.51987755   -3.41E-05*  1.65E-02   10  12 2 -8.21E-04*  0.07   1.10    QN   YES    0:00:02
       10   4    9    1  -229.51991427   -3.67E-05*  7.11E-03    8  15 1 -3.23E-04*  0.07   1.44    LS   YES    0:00:01
       11   4    8    1  -229.51991813   -3.86E-06*  8.86E-04    8  20 1  2.74E-04*  0.07   1.04    QN   YES    0:00:02
       12   4    8    1  -229.51991930   -1.17E-06*  6.10E-04    8  20 1  1.05E-04*  0.07   1.38    QN   YES    0:00:02
       13   4    7    1  -229.51991950   -1.94E-07*  2.09E-04    5  10 2  2.40E-05   0.07   1.12    QN   YES    0:00:01
       14   1    6    1  -229.51991951   -1.60E-08*  1.23E-04    8  21 1  1.24E-05   0.07   1.22    QN   YES    0:00:01
       15   2    5    1  -229.51991952   -5.01E-09  -4.67E-05    8  17 1 -5.96E-06   0.07   1.16    QN   YES    0:00:01
      Convergence after 15 iterations
       16   1    5    1  -229.51991952   -5.72E-10  -4.67E-05    5  10 2 -2.33E-06   0.07   1.16    QN   YES    0:00:01

      ************************************************************************************************************************
                                                      Wave function printout:
                       occupation of active orbitals, and spin coupling of open shells (u,d: Spin up or down)
      ************************************************************************************************************************

      Note: transformation to natural orbitals
      has been made, which may change the order of the CSFs.

      printout of CI-coefficients larger than  0.05 for root  1
      energy=    -229.519920
      conf/sym  111222333444     Coeff  Weight
         11415  222 000 220 200   0.06667 0.00444
         11436  222 000 200 220  -0.43472 0.18898
         11458  222 000 ud0 2ud  -0.07536 0.00568
         11505  222 000 000 222   0.06119 0.00374
         11507  220 200 220 200  -0.11795 0.01391
         11514  220 200 2ud ud0   0.08372 0.00701
         11528  220 200 200 220   0.80934 0.65503
         11550  220 200 ud0 2ud   0.11748 0.01380
         11564  220 200 u0d u2d  -0.05398 0.00291
         11568  220 200 u0u d2d   0.05479 0.00300
         11597  220 200 000 222  -0.08104 0.00657
         12172  2ud ud0 200 220  -0.06265 0.00392
         13460  200 220 200 220  -0.06022 0.00363
         19936  22u d00 u00 22d   0.07800 0.00608
         20382  2u0 2d0 2u0 2d0  -0.05294 0.00280
         35056  22u u00 d00 22d   0.10154 0.01031

      Natural orbitals and occupation numbers for root  1
      sym 1:   1.977250   1.964234   0.482539
      sym 2:   1.523766   0.030545   0.020135
      sym 3:   1.908589   0.107701   0.039535
      sym 4:   1.957663   1.898037   0.090006

      ************************************************************************************************************************
      *                                                                                                                      *
      *                                                    Final results                                                     *
      *                                                                                                                      *
      ************************************************************************************************************************


++    Wave function specifications:
      -----------------------------

      Number of closed shell electrons          28
      Number of electrons in active shells      12
      Max number of holes in RAS1 space          0
      Max nr of electrons in RAS3 space          0
      Number of inactive orbitals               14
      Number of active orbitals                 12
      Number of secondary orbitals              72
      Spin quantum number                      0.0
      State symmetry                             1
--

++    Orbital specifications:
      -----------------------

      Symmetry species                           1   2   3   4
                                                a1  b1  a2  b2
      Frozen orbitals                            0   0   0   0
      Inactive orbitals                          7   7   0   0
      Active orbitals                            3   3   3   3
      RAS1 orbitals                              0   0   0   0
      RAS2 orbitals                              3   3   3   3
      RAS3 orbitals                              0   0   0   0
      Secondary orbitals                        27  27   9   9
      Deleted orbitals                           0   0   0   0
      Number of basis functions                 37  37  12  12
--

++    CI expansion specifications:
      ----------------------------

      Number of CSFs                         56928
      Number of determinants                107334
      Number of root(s) required                 1
      CI root used                               1
      highest root included in the CI            1
      Root passed to geometry opt.               1
--

++    Final optimization conditions:
      ------------------------------

      Average CI energy                            -229.51991952
      RASSCF energy for state  1                   -229.51991952
      Super-CI energy                                -0.00000000
      RASSCF energy change                            0.00000000
      Max change in MO coefficients               9.523E-05
      Max non-diagonal density matrix element    -4.669E-05
      Maximum BLB matrix element                 -2.331E-06
      (orbital pair   5,  10 in symmetry   2)
      Norm of electronic gradient            1.066E-05
--


      Final state energy(ies):
      ------------------------

::    RASSCF root number  1 Total energy:   -229.51991952

++    Molecular orbitals:
      -------------------

      Pseudonatural active orbitals and approximate occupation numbers




      Molecular orbitals for symmetry species 1: a1 


      Orbital                 1         2         3         4         5         6         7         8         9        10
      Energy           -11.2347  -11.2344  -11.2212   -1.1127   -0.9259   -0.7537   -0.6329   -0.6927    0.0020   -0.1558
      Occ. No.           2.0000    2.0000    2.0000    2.0000    2.0000    2.0000    2.0000    1.9773    1.9642    0.4825

     1 C1     1s         0.9807   -0.1532   -0.0774   -0.1229    0.1289   -0.0582    0.0162    0.0045    0.0904   -0.0019
     2 C1     2s         0.0272   -0.0044   -0.0024    0.2290   -0.2433    0.1127   -0.0313   -0.0110   -0.1858    0.0045
     3 C1     *s        -0.0090    0.0017    0.0067    0.1462   -0.2094    0.1131   -0.0456   -0.0037   -0.1670   -0.0624
     4 C1     2px        0.0008   -0.0000   -0.0011    0.0589   -0.1030    0.0457   -0.0220    0.0197    0.5226    0.2503
     5 C1     *px       -0.0003    0.0001   -0.0003    0.0284   -0.0592    0.0331    0.0002    0.0009    0.2381    0.1917
     6 C1     2py       -0.0001    0.0000    0.0003   -0.1104   -0.0011    0.2862    0.3306   -0.0095    0.0124   -0.0562
     7 C1     *py        0.0006   -0.0004   -0.0033   -0.0113   -0.0158    0.1171    0.1400   -0.0064    0.0234    0.0503
     8 C1     *200      -0.0016    0.0003   -0.0000    0.0016   -0.0034    0.0028   -0.0014   -0.0006   -0.0155   -0.0147
     9 C1     *110      -0.0002    0.0000    0.0002   -0.0038    0.0015    0.0082    0.0128   -0.0020   -0.0073    0.0122
    10 C1     *020      -0.0009    0.0002   -0.0000    0.0096   -0.0091    0.0071    0.0081   -0.0004    0.0080    0.0167
    11 C1     *002      -0.0015    0.0002    0.0000   -0.0063    0.0063   -0.0026    0.0002    0.0007    0.0033   -0.0008
    12 C2     1s         0.0831    0.0383    0.9916   -0.1669   -0.0061    0.0640    0.0016   -0.0541   -0.0560    0.0665
    13 C2     2s         0.0020    0.0008    0.0277    0.3190    0.0133   -0.1257   -0.0015    0.1178    0.1207   -0.1572
    14 C2     *s         0.0035    0.0023   -0.0162    0.2010    0.0134   -0.0498    0.0179    0.1275    0.1374   -0.2555
    15 C2     2px        0.0003    0.0001   -0.0015   -0.0925   -0.0126    0.1106   -0.0063    0.0735    0.1110   -0.5907
    16 C2     *px       -0.0005   -0.0006    0.0037   -0.0129   -0.0062    0.0111   -0.0043    0.0227    0.0412   -0.4559
    17 C2     2py       -0.0001    0.0002   -0.0000    0.0189   -0.2828   -0.0094   -0.3256   -0.0829    0.0888    0.0328
    18 C2     *py        0.0014   -0.0017   -0.0004   -0.0052   -0.0316    0.0044   -0.0611   -0.0286    0.0173    0.0139
    19 C2     *200      -0.0003   -0.0002   -0.0014   -0.0031    0.0006   -0.0051    0.0010   -0.0076   -0.0074   -0.0148
    20 C2     *110      -0.0000   -0.0000   -0.0000   -0.0007    0.0130    0.0017    0.0269   -0.0074    0.0115    0.0026
    21 C2     *020      -0.0002   -0.0002   -0.0007    0.0105    0.0016    0.0017   -0.0002    0.0060    0.0068    0.0162
    22 C2     *002      -0.0002   -0.0001   -0.0015   -0.0073   -0.0006    0.0032    0.0002   -0.0001   -0.0001    0.0009
    23 H3     1s        -0.0003    0.0000   -0.0001    0.0555   -0.1232    0.2036    0.1693   -0.0076    0.0658    0.0803
    24 H3     *s         0.0020   -0.0001    0.0005    0.0144   -0.0472    0.1060    0.1209   -0.0040    0.0849    0.0742
    25 C4     1s         0.1495    0.9827   -0.0513   -0.0996   -0.1382   -0.0553   -0.0128    0.1181   -0.0183   -0.0039
    26 C4     2s         0.0040    0.0277   -0.0015    0.1866    0.2616    0.1060    0.0284   -0.2408    0.0382    0.0088
    27 C4     *s        -0.0009   -0.0086    0.0054    0.1069    0.2213    0.1148    0.0361   -0.1623    0.0284   -0.0209
    28 C4     2px        0.0001   -0.0000   -0.0008    0.0736    0.1323    0.0593    0.0083    0.5409   -0.0776    0.2043
    29 C4     *px       -0.0001   -0.0009   -0.0002    0.0332    0.0796    0.0448   -0.0002    0.1977   -0.0392    0.1494
    30 C4     2py       -0.0000    0.0002   -0.0003    0.1003    0.0046   -0.2682    0.3476   -0.0021    0.0192    0.0618
    31 C4     *py        0.0003   -0.0008    0.0027    0.0127   -0.0130   -0.1068    0.1453   -0.0127    0.0105   -0.0322
    32 C4     *200      -0.0002   -0.0014   -0.0001    0.0016    0.0040    0.0029    0.0012   -0.0141    0.0029   -0.0108
    33 C4     *110       0.0000    0.0001   -0.0003    0.0038   -0.0007   -0.0087    0.0118    0.0063    0.0027   -0.0117
    34 C4     *020      -0.0001   -0.0011   -0.0002    0.0088    0.0091    0.0042   -0.0070    0.0115   -0.0035    0.0146
    35 C4     *002      -0.0003   -0.0015   -0.0000   -0.0055   -0.0068   -0.0023   -0.0001    0.0044    0.0000   -0.0006
    36 H5     1s        -0.0001   -0.0003   -0.0000    0.0488    0.1377    0.1900   -0.1746    0.0642   -0.0261    0.0697
    37 H5     *s         0.0005    0.0017    0.0005    0.0163    0.0564    0.0976   -0.1229    0.0851   -0.0315    0.0612



      Molecular orbitals for symmetry species 2: b1 


      Orbital                 1         2         3         4         5         6         7         8         9        10
      Energy           -11.2342  -11.2335  -11.2213   -1.0077   -0.8396   -0.6481   -0.5419   -0.2165   -0.0001    0.0005
      Occ. No.           2.0000    2.0000    2.0000    2.0000    2.0000    2.0000    2.0000    1.5238    0.0305    0.0201

     1 C1     1s         0.9899   -0.0762   -0.0777   -0.1210    0.1230   -0.0583   -0.0069    0.0558    0.1356   -0.0040
     2 C1     2s         0.0278   -0.0021   -0.0027    0.2364   -0.2436    0.1154    0.0173   -0.1380   -0.5349    0.0380
     3 C1     *s        -0.0188   -0.0014    0.0125    0.1555   -0.2265    0.1286   -0.0057   -0.0720   -0.7691    0.1894
     4 C1     2px        0.0001   -0.0000   -0.0003    0.1052   -0.1304    0.0645    0.0297    0.0874    0.9584   -0.1442
     5 C1     *px        0.0026    0.0006   -0.0012    0.0200   -0.0528    0.0383    0.0124    0.0798    0.5664   -0.1198
     6 C1     2py       -0.0002   -0.0000    0.0002   -0.1248    0.0175    0.3266   -0.2983    0.0754    0.0239    0.0359
     7 C1     *py        0.0036    0.0013   -0.0059    0.0217   -0.0347    0.1629   -0.1337   -0.1221    0.0693   -0.0681
     8 C1     *200      -0.0010    0.0001   -0.0002   -0.0068    0.0040   -0.0011    0.0013    0.0126   -0.0035    0.0051
     9 C1     *110      -0.0002    0.0000    0.0001   -0.0078    0.0029    0.0241   -0.0237   -0.0097   -0.0194    0.0001
    10 C1     *020      -0.0007    0.0002   -0.0001    0.0123   -0.0100    0.0092   -0.0087   -0.0114    0.0338   -0.0065
    11 C1     *002      -0.0013    0.0001   -0.0000   -0.0049    0.0049   -0.0025    0.0003   -0.0004    0.0061   -0.0018
    12 C2     1s         0.0806    0.0497    0.9912   -0.1783   -0.0087    0.0780    0.0131   -0.0784    0.0067    0.0021
    13 C2     2s         0.0018    0.0012    0.0284    0.3411    0.0195   -0.1580   -0.0287    0.1622   -0.0684    0.0461
    14 C2     *s         0.0087    0.0077   -0.0225    0.2710    0.0128   -0.0734   -0.0304    0.1062    0.0261   -0.1933
    15 C2     2px        0.0002    0.0001   -0.0016   -0.1205   -0.0185    0.1020    0.0247    0.5491   -0.2142    0.1978
    16 C2     *px       -0.0025   -0.0024    0.0058   -0.0514   -0.0089    0.0046    0.0095    0.4938   -0.1522    0.2140
    17 C2     2py       -0.0002    0.0002    0.0000    0.0344   -0.3145   -0.0365    0.3438   -0.0177    0.0567    0.0370
    18 C2     *py        0.0019   -0.0016   -0.0006    0.0030   -0.0373   -0.0068    0.0955   -0.0271    0.0191    0.0096
    19 C2     *200      -0.0004   -0.0003   -0.0014   -0.0035    0.0008   -0.0032   -0.0010   -0.0032   -0.0200    0.0186
    20 C2     *110      -0.0000   -0.0001   -0.0000   -0.0011    0.0163    0.0046   -0.0250    0.0012    0.0254    0.0146
    21 C2     *020      -0.0003   -0.0004   -0.0006    0.0116    0.0018    0.0024    0.0004   -0.0036    0.0242   -0.0220
    22 C2     *002      -0.0002   -0.0002   -0.0014   -0.0077   -0.0006    0.0027    0.0002    0.0022    0.0011    0.0009
    23 H3     1s         0.0003    0.0001   -0.0001   -0.0581    0.1172   -0.2505    0.1754    0.0301   -0.0315    0.0003
    24 H3     *s        -0.0013    0.0005   -0.0010    0.0010    0.0284   -0.1488    0.1439   -0.0193   -0.0079   -0.0264
    25 C4     1s         0.0720    0.9917   -0.0563   -0.0937   -0.1360   -0.0532   -0.0039    0.0447   -0.0401   -0.1542
    26 C4     2s         0.0021    0.0282   -0.0019    0.1832    0.2710    0.1063    0.0017   -0.1136    0.1392    0.7352
    27 C4     *s        -0.0040   -0.0200    0.0120    0.1233    0.2453    0.0988    0.0249   -0.0619    0.0985    0.9977
    28 C4     2px       -0.0000   -0.0001   -0.0002    0.1006    0.1670    0.0744   -0.0037    0.0312   -0.1115   -1.0817
    29 C4     *px        0.0012    0.0031   -0.0017    0.0167    0.0764    0.0501    0.0014    0.0293   -0.0102   -0.5587
    30 C4     2py        0.0000    0.0003   -0.0002    0.0988    0.0251   -0.2317   -0.3679   -0.0661    0.0569   -0.0013
    31 C4     *py       -0.0015   -0.0037    0.0053   -0.0061   -0.0316   -0.1401   -0.1928    0.1034    0.0165    0.1384
    32 C4     *200      -0.0001   -0.0008   -0.0003   -0.0045   -0.0036    0.0001   -0.0001    0.0117   -0.0055    0.0020
    33 C4     *110      -0.0000    0.0002   -0.0002    0.0073    0.0012   -0.0222   -0.0343    0.0076   -0.0030   -0.0160
    34 C4     *020       0.0000   -0.0008   -0.0002    0.0113    0.0114    0.0046    0.0080   -0.0106   -0.0058   -0.0566
    35 C4     *002      -0.0001   -0.0013   -0.0000   -0.0042   -0.0056   -0.0021   -0.0007   -0.0004   -0.0010   -0.0120
    36 H5     1s        -0.0001   -0.0003    0.0001    0.0506    0.1368    0.1950    0.2312   -0.0295   -0.0122   -0.0349
    37 H5     *s        -0.0002    0.0011    0.0009    0.0065    0.0361    0.1082    0.1814    0.0153   -0.0229    0.0095



      Molecular orbitals for symmetry species 3: a2 


      Orbital                 1         2         3
      Energy            -0.3483    0.1483    0.4551
      Occ. No.           1.9086    0.1077    0.0395

     1 C1     2pz        0.3009   -0.5588    0.5354
     2 C1     *pz        0.2148   -0.3361    0.2849
     3 C1     *101       0.0174   -0.0007   -0.0236
     4 C1     *011      -0.0209    0.0112    0.0037
     5 C2     2pz        0.4552    0.0881   -0.5506
     6 C2     *pz        0.3089    0.0545   -0.4040
     7 C2     *101      -0.0165    0.0024   -0.0273
     8 C2     *011       0.0058   -0.0427   -0.0039
     9 C4     2pz        0.2053    0.5802    0.6031
    10 C4     *pz        0.1500    0.3417    0.3222
    11 C4     *101       0.0155    0.0035   -0.0253
    12 C4     *011       0.0177    0.0134   -0.0040



      Molecular orbitals for symmetry species 4: b2 


      Orbital                 1         2         3
      Energy            -0.4975   -0.3112    0.2253
      Occ. No.           1.9577    1.8980    0.0900

     1 C1     2pz        0.2934   -0.3848   -0.3884
     2 C1     *pz        0.1828   -0.3090   -0.2903
     3 C1     *101      -0.0037    0.0109    0.0441
     4 C1     *011      -0.0159    0.0044   -0.0171
     5 C2     2pz        0.3177   -0.0605    0.6492
     6 C2     *pz        0.1680   -0.0459    0.4886
     7 C2     *101      -0.0193    0.0007    0.0213
     8 C2     *011       0.0014   -0.0320   -0.0004
     9 C4     2pz        0.3179    0.4171   -0.2715
    10 C4     *pz        0.1968    0.3341   -0.2380
    11 C4     *101      -0.0090   -0.0204    0.0389
    12 C4     *011       0.0144   -0.0008    0.0176
--

      Von Neumann Entropy (Root   1) =  1.70113


      Mulliken population analysis for root number:  1
      -----------------------------------------------


++    Molecular charges:
      ------------------

      Mulliken charges per centre and basis function type
      ---------------------------------------------------

                C1      C2      H3      C4      H5    
      1s       1.9966  1.9968  0.5205  1.9966  0.5239
      2s       0.6779  0.6895  0.0000  0.6788  0.0000
      2px      0.6385  0.6037  0.0000  0.7053  0.0000
      2pz      0.5708  0.5571  0.0000  0.5597  0.0000
      2py      0.7737  0.7835  0.0000  0.7480  0.0000
      *s       0.5271  0.4746  0.2557  0.5105  0.2593
      *px      0.2721  0.3541  0.0000  0.2332  0.0000
      *110     0.0121  0.0153  0.0000  0.0153  0.0000
      *020     0.0422  0.0294  0.0000  0.0336  0.0000
      *002    -0.0181 -0.0155  0.0000 -0.0183  0.0000
      *200     0.0111 -0.0043  0.0000  0.0156  0.0000
      *pz      0.4517  0.3848  0.0000  0.4454  0.0000
      *py      0.2834  0.0797  0.0000  0.2979  0.0000
      *101     0.0036  0.0036  0.0000  0.0056  0.0000
      *011     0.0052  0.0093  0.0000  0.0040  0.0000
      Total    6.2480  5.9616  0.7762  6.2310  0.7832

      N-E     -0.2480  0.0384  0.2238 -0.2310  0.2168

      Total electronic charge=   40.000000

      Total            charge=   -0.000000
--



      Expectation values of various properties for root number:  1
      -----------------------------------------------------------


++    Molecular properties:
      ---------------------

      Charge (e):
                      =   -0.0000
      Dipole Moment (Debye):
      Origin of the operator (Ang)=    0.0000    0.0000    0.0000
                   X=  0.0000E+00               Y=  7.7456E-02               Z=  0.0000E+00           Total=  7.7456E-02
      Quadrupole Moment (Debye*Ang):
      Origin of the operator (Ang)=    0.0000    0.0000    0.0000
                  XX= -3.6132E+01              XY=  0.0000E+00              XZ=  0.0000E+00              YY= -2.6549E+01
                  YZ=  0.0000E+00              ZZ= -3.7302E+01
      In traceless form (Debye*Ang)
                  XX= -4.2065E+00              XY=  0.0000E+00              XZ=  0.0000E+00              YY=  1.0167E+01
                  YZ=  0.0000E+00              ZZ= -5.9609E+00
--


      Input file to MOLDEN was generated!

      Average orbitals are written to the RASORB file
      Natural orbitals for root   1 are written to the RASORB.1 file
      Spin density orbitals for root   1 are written to the SPDORB.1 file

--- Stop Module: rasscf at Mon Jul  8 12:45:30 2024 /rc=_RC_ALL_IS_WELL_ ---
*** files: ts.rasscf.molden ts.RasOrb.1 ts.RasOrb ts.SpdOrb.1 xmldump
    saved to directory /home/kenya/molcas_test/exercise_1
--- Module rasscf spent 35 seconds ---

.##################.
.# Happy landing! #.
.##################.

    Timing: Wall=38.81 User=37.74 System=1.02
