[Molden Format]
[N_Atoms]
                   10
[Atoms] (AU)
C1          1      6           1.79524000      2.28645904      0.00001593
C2          2      6          -1.79523970      2.28645893     -0.00001976
C3          3      6           2.63580888      0.00440637      0.00006322
C4          4      6          -2.63580899      0.00440634     -0.00005018
H5          5      1          -2.48729261      4.17771029     -0.00003820
H6          6      1           2.48729252      4.17771051      0.00003665
C7          7      6           1.32908899     -2.32423974     -0.00007015
C8          8      6          -1.32908908     -2.32423980      0.00006107
H9          9      1           2.30590816     -4.10139748     -0.00013283
H10        10      1          -2.30590817     -4.10139759      0.00013425
[Charge] (Mulliken)
 -0.26720311306330835     
 -0.26720314891207408     
   3.3363340906175765E-002
   3.3363328463813069E-002
  0.23763031927709577     
  0.23763035177187442     
 -0.21881337440952642     
 -0.21881336979791577     
  0.21502283372750974     
  0.21502283203124484     
[GTO] (AU)
   1
   s   6
  3.047524880E+03  1.834737132E-03
  4.573695180E+02  1.403732281E-02
  1.039486850E+02  6.884262227E-02
  2.921015530E+01  2.321844432E-01
  9.286662960E+00  4.679413484E-01
  3.163926960E+00  3.623119853E-01
   s   3
  7.868272350E+00 -1.193324198E-01
  1.881288540E+00 -1.608541517E-01
  5.442492580E-01  1.143456438E+00
   s   1
  1.687144782E-01  1.000000000E+00
   p   3
  7.868272350E+00  6.899906659E-02
  1.881288540E+00  3.164239610E-01
  5.442492580E-01  7.443082909E-01
   p   1
  1.687144782E-01  1.000000000E+00
   d   1
  8.000000000E-01  1.000000000E+00
 
   2
   s   6
  3.047524880E+03  1.834737132E-03
  4.573695180E+02  1.403732281E-02
  1.039486850E+02  6.884262227E-02
  2.921015530E+01  2.321844432E-01
  9.286662960E+00  4.679413484E-01
  3.163926960E+00  3.623119853E-01
   s   3
  7.868272350E+00 -1.193324198E-01
  1.881288540E+00 -1.608541517E-01
  5.442492580E-01  1.143456438E+00
   s   1
  1.687144782E-01  1.000000000E+00
   p   3
  7.868272350E+00  6.899906659E-02
  1.881288540E+00  3.164239610E-01
  5.442492580E-01  7.443082909E-01
   p   1
  1.687144782E-01  1.000000000E+00
   d   1
  8.000000000E-01  1.000000000E+00
 
   3
   s   6
  3.047524880E+03  1.834737132E-03
  4.573695180E+02  1.403732281E-02
  1.039486850E+02  6.884262227E-02
  2.921015530E+01  2.321844432E-01
  9.286662960E+00  4.679413484E-01
  3.163926960E+00  3.623119853E-01
   s   3
  7.868272350E+00 -1.193324198E-01
  1.881288540E+00 -1.608541517E-01
  5.442492580E-01  1.143456438E+00
   s   1
  1.687144782E-01  1.000000000E+00
   p   3
  7.868272350E+00  6.899906659E-02
  1.881288540E+00  3.164239610E-01
  5.442492580E-01  7.443082909E-01
   p   1
  1.687144782E-01  1.000000000E+00
   d   1
  8.000000000E-01  1.000000000E+00
 
   4
   s   6
  3.047524880E+03  1.834737132E-03
  4.573695180E+02  1.403732281E-02
  1.039486850E+02  6.884262227E-02
  2.921015530E+01  2.321844432E-01
  9.286662960E+00  4.679413484E-01
  3.163926960E+00  3.623119853E-01
   s   3
  7.868272350E+00 -1.193324198E-01
  1.881288540E+00 -1.608541517E-01
  5.442492580E-01  1.143456438E+00
   s   1
  1.687144782E-01  1.000000000E+00
   p   3
  7.868272350E+00  6.899906659E-02
  1.881288540E+00  3.164239610E-01
  5.442492580E-01  7.443082909E-01
   p   1
  1.687144782E-01  1.000000000E+00
   d   1
  8.000000000E-01  1.000000000E+00
 
   5
   s   3
  1.873113696E+01  3.349460434E-02
  2.825394365E+00  2.347269535E-01
  6.401216923E-01  8.137573261E-01
   s   1
  1.612777588E-01  1.000000000E+00
 
   6
   s   3
  1.873113696E+01  3.349460434E-02
  2.825394365E+00  2.347269535E-01
  6.401216923E-01  8.137573261E-01
   s   1
  1.612777588E-01  1.000000000E+00
 
   7
   s   6
  3.047524880E+03  1.834737132E-03
  4.573695180E+02  1.403732281E-02
  1.039486850E+02  6.884262227E-02
  2.921015530E+01  2.321844432E-01
  9.286662960E+00  4.679413484E-01
  3.163926960E+00  3.623119853E-01
   s   3
  7.868272350E+00 -1.193324198E-01
  1.881288540E+00 -1.608541517E-01
  5.442492580E-01  1.143456438E+00
   s   1
  1.687144782E-01  1.000000000E+00
   p   3
  7.868272350E+00  6.899906659E-02
  1.881288540E+00  3.164239610E-01
  5.442492580E-01  7.443082909E-01
   p   1
  1.687144782E-01  1.000000000E+00
   d   1
  8.000000000E-01  1.000000000E+00
 
   8
   s   6
  3.047524880E+03  1.834737132E-03
  4.573695180E+02  1.403732281E-02
  1.039486850E+02  6.884262227E-02
  2.921015530E+01  2.321844432E-01
  9.286662960E+00  4.679413484E-01
  3.163926960E+00  3.623119853E-01
   s   3
  7.868272350E+00 -1.193324198E-01
  1.881288540E+00 -1.608541517E-01
  5.442492580E-01  1.143456438E+00
   s   1
  1.687144782E-01  1.000000000E+00
   p   3
  7.868272350E+00  6.899906659E-02
  1.881288540E+00  3.164239610E-01
  5.442492580E-01  7.443082909E-01
   p   1
  1.687144782E-01  1.000000000E+00
   d   1
  8.000000000E-01  1.000000000E+00
 
   9
   s   3
  1.873113696E+01  3.349460434E-02
  2.825394365E+00  2.347269535E-01
  6.401216923E-01  8.137573261E-01
   s   1
  1.612777588E-01  1.000000000E+00
 
  10
   s   3
  1.873113696E+01  3.349460434E-02
  2.825394365E+00  2.347269535E-01
  6.401216923E-01  8.137573261E-01
   s   1
  1.612777588E-01  1.000000000E+00
 
[MO]
Sym=     1a  
Ene=   -11.2430
Spin= Alpha
Occup=    2.00000
   1         0.00563611
   2         0.00005800
   3        -0.00000851
   4         0.00008579
   5         0.00001601
   6         0.00000003
   7         0.00006311
   8        -0.00012766
   9        -0.00000004
  10        -0.00001158
  11         0.00007828
  12        -0.00007061
  13        -0.00003863
  14         0.00000001
  15         0.00000000
  16         0.00563610
  17         0.00005800
  18        -0.00000851
  19        -0.00008579
  20         0.00001601
  21        -0.00000002
  22        -0.00006311
  23        -0.00012766
  24         0.00000003
  25        -0.00001158
  26         0.00007828
  27        -0.00007061
  28         0.00003863
  29         0.00000000
  30        -0.00000000
  31         0.01914265
  32         0.00037679
  33         0.00218685
  34         0.00008719
  35         0.00015261
  36         0.00000003
  37        -0.00055917
  38        -0.00088946
  39         0.00000007
  40        -0.00020660
  41        -0.00041196
  42        -0.00015308
  43        -0.00007488
  44        -0.00000002
  45        -0.00000002
  46         0.01914271
  47         0.00037679
  48         0.00218687
  49        -0.00008719
  50         0.00015261
  51        -0.00000002
  52         0.00055917
  53        -0.00088946
  54        -0.00000007
  55        -0.00020660
  56        -0.00041196
  57        -0.00015308
  58         0.00007488
  59        -0.00000001
  60         0.00000001
  61         0.00000006
  62         0.00013286
  63         0.00000006
  64         0.00013286
  65         0.70348302
  66         0.01967247
  67        -0.00599913
  68        -0.00011475
  69         0.00018624
  70         0.00000009
  71        -0.00079342
  72        -0.00053454
  73        -0.00000015
  74        -0.00154935
  75        -0.00143767
  76        -0.00176956
  77         0.00003080
  78         0.00000001
  79         0.00000002
  80         0.70348522
  81         0.01967253
  82        -0.00599917
  83         0.00011475
  84         0.00018624
  85        -0.00000007
  86         0.00079341
  87        -0.00053455
  88         0.00000015
  89        -0.00154935
  90        -0.00143767
  91        -0.00176956
  92        -0.00003080
  93         0.00000001
  94        -0.00000002
  95        -0.00019360
  96         0.00123977
  97        -0.00019360
  98         0.00123978
Sym=     2a  
Ene=   -11.2420
Spin= Alpha
Occup=    2.00000
   1         0.01976225
   2         0.00056506
   3        -0.00208257
   4         0.00001123
   5        -0.00001328
   6         0.00000002
   7         0.00051615
   8         0.00117956
   9        -0.00000004
  10         0.00000306
  11         0.00008445
  12        -0.00002498
  13        -0.00002520
  14         0.00000001
  15        -0.00000000
  16        -0.01976194
  17        -0.00056506
  18         0.00208257
  19         0.00001123
  20         0.00001328
  21         0.00000002
  22         0.00051615
  23        -0.00117956
  24        -0.00000003
  25        -0.00000306
  26        -0.00008445
  27         0.00002498
  28        -0.00002520
  29        -0.00000001
  30        -0.00000000
  31         0.02205905
  32         0.00052983
  33         0.00587339
  34         0.00012876
  35         0.00005552
  36         0.00000007
  37        -0.00184329
  38        -0.00075581
  39        -0.00000012
  40        -0.00034263
  41        -0.00051905
  42        -0.00018325
  43        -0.00013167
  44         0.00000001
  45        -0.00000004
  46        -0.02205896
  47        -0.00052983
  48        -0.00587338
  49         0.00012876
  50        -0.00005552
  51         0.00000007
  52        -0.00184329
  53         0.00075580
  54        -0.00000010
  55         0.00034263
  56         0.00051905
  57         0.00018325
  58        -0.00013167
  59        -0.00000001
  60        -0.00000003
  61         0.00006718
  62         0.00025950
  63        -0.00006718
  64        -0.00025950
  65         0.70359461
  66         0.01988667
  67        -0.01426754
  68        -0.00006414
  69         0.00025657
  70         0.00000021
  71         0.00239494
  72        -0.00273189
  73        -0.00000019
  74        -0.00087502
  75        -0.00104080
  76        -0.00157382
  77         0.00010648
  78        -0.00000003
  79        -0.00000000
  80        -0.70359242
  81        -0.01988661
  82         0.01426753
  83        -0.00006414
  84        -0.00025657
  85         0.00000020
  86         0.00239495
  87         0.00273189
  88        -0.00000016
  89         0.00087502
  90         0.00104079
  91         0.00157382
  92         0.00010648
  93         0.00000003
  94        -0.00000000
  95        -0.00017766
  96         0.00073595
  97         0.00017766
  98        -0.00073595
Sym=     3a  
Ene=   -11.2410
Spin= Alpha
Occup=    2.00000
   1         0.70238043
   2         0.01898710
   3        -0.00699395
   4         0.00078514
   5         0.00004838
   6         0.00000004
   7        -0.00016997
   8         0.00050191
   9        -0.00000004
  10        -0.00194052
  11        -0.00090988
  12        -0.00176522
  13        -0.00005718
  14        -0.00000001
  15        -0.00000000
  16         0.70227666
  17         0.01898423
  18        -0.00699226
  19        -0.00078510
  20         0.00004837
  21        -0.00000003
  22         0.00017018
  23         0.00050162
  24         0.00000004
  25        -0.00194027
  26        -0.00090975
  27        -0.00176500
  28         0.00005718
  29        -0.00000001
  30        -0.00000000
  31         0.04856076
  32         0.00119513
  33         0.00264859
  34         0.00042878
  35        -0.00016626
  36         0.00000001
  37        -0.00010348
  38         0.00147256
  39         0.00000001
  40        -0.00032440
  41        -0.00013023
  42        -0.00024419
  43         0.00003894
  44        -0.00000001
  45         0.00000000
  46         0.04855395
  47         0.00119500
  48         0.00264783
  49        -0.00042874
  50        -0.00016624
  51        -0.00000000
  52         0.00010331
  53         0.00147231
  54        -0.00000001
  55        -0.00032436
  56        -0.00013021
  57        -0.00024416
  58        -0.00003894
  59        -0.00000000
  60        -0.00000000
  61        -0.00029789
  62         0.00155573
  63        -0.00029793
  64         0.00155589
  65        -0.00696906
  66        -0.00035499
  67         0.00042365
  68         0.00012434
  69        -0.00004863
  70         0.00000000
  71         0.00012888
  72         0.00027816
  73         0.00000001
  74        -0.00001606
  75         0.00003601
  76        -0.00003392
  77         0.00000449
  78        -0.00000000
  79        -0.00000000
  80        -0.00696564
  81        -0.00035489
  82         0.00042381
  83        -0.00012434
  84        -0.00004862
  85        -0.00000000
  86        -0.00012878
  87         0.00027825
  88        -0.00000001
  89        -0.00001605
  90         0.00003600
  91        -0.00003393
  92        -0.00000449
  93        -0.00000000
  94         0.00000000
  95        -0.00002869
  96         0.00010103
  97        -0.00002868
  98         0.00010106
Sym=     4a  
Ene=   -11.2410
Spin= Alpha
Occup=    2.00000
   1         0.70224054
   2         0.01944365
   3        -0.01141481
   4         0.00030667
   5         0.00004860
   6         0.00000004
   7         0.00138345
   8         0.00194712
   9        -0.00000002
  10        -0.00169140
  11        -0.00081650
  12        -0.00151510
  13        -0.00005894
  14        -0.00000001
  15         0.00000000
  16        -0.70234432
  17        -0.01944646
  18         0.01141585
  19         0.00030679
  20        -0.00004861
  21         0.00000004
  22         0.00138343
  23        -0.00194720
  24        -0.00000000
  25         0.00169169
  26         0.00081664
  27         0.00151536
  28        -0.00005895
  29         0.00000001
  30         0.00000000
  31         0.04619797
  32         0.00090037
  33         0.00519021
  34         0.00026940
  35        -0.00015723
  36         0.00000002
  37        -0.00115220
  38         0.00170860
  39        -0.00000004
  40        -0.00031087
  41        -0.00014075
  42        -0.00021366
  43         0.00000831
  44         0.00000000
  45         0.00000000
  46        -0.04620515
  47        -0.00090055
  48        -0.00519060
  49         0.00026946
  50         0.00015726
  51         0.00000001
  52        -0.00115222
  53        -0.00170882
  54        -0.00000003
  55         0.00031092
  56         0.00014077
  57         0.00021370
  58         0.00000832
  59        -0.00000000
  60         0.00000000
  61         0.00028947
  62        -0.00107401
  63        -0.00028943
  64         0.00107378
  65        -0.02115594
  66        -0.00059369
  67        -0.00113471
  68        -0.00001759
  69        -0.00005257
  70        -0.00000001
  71         0.00067335
  72        -0.00058600
  73        -0.00000006
  74        -0.00001799
  75         0.00008351
  76         0.00007298
  77        -0.00005139
  78         0.00000001
  79        -0.00000001
  80         0.02115689
  81         0.00059374
  82         0.00113465
  83        -0.00001757
  84         0.00005258
  85        -0.00000001
  86         0.00067337
  87         0.00058595
  88        -0.00000006
  89         0.00001799
  90        -0.00008352
  91        -0.00007298
  92        -0.00005139
  93        -0.00000001
  94        -0.00000001
  95        -0.00005700
  96        -0.00018237
  97         0.00005700
  98         0.00018236
Sym=     5a  
Ene=   -11.2250
Spin= Alpha
Occup=    2.00000
   1         0.04761148
   2         0.00167661
   3        -0.00767846
   4         0.00034734
   5        -0.00013909
   6         0.00000008
   7         0.00084871
   8         0.00383642
   9         0.00000002
  10         0.00014463
  11         0.00006997
  12         0.00003127
  13        -0.00010436
  14         0.00000002
  15        -0.00000001
  16        -0.04760885
  17        -0.00167653
  18         0.00767820
  19         0.00034730
  20         0.00013908
  21         0.00000007
  22         0.00084869
  23        -0.00383629
  24         0.00000002
  25        -0.00014463
  26        -0.00006997
  27        -0.00003127
  28        -0.00010436
  29        -0.00000002
  30        -0.00000000
  31        -0.70232304
  32        -0.01969154
  33         0.01464151
  34         0.00132576
  35        -0.00002724
  36         0.00000014
  37        -0.00355528
  38         0.00080138
  39        -0.00000022
  40         0.00163570
  41         0.00070910
  42         0.00156332
  43        -0.00004314
  44         0.00000001
  45        -0.00000002
  46         0.70228575
  47         0.01969052
  48        -0.01464093
  49         0.00132570
  50         0.00002724
  51         0.00000012
  52        -0.00355516
  53        -0.00080135
  54        -0.00000017
  55        -0.00163561
  56        -0.00070906
  57        -0.00156323
  58        -0.00004313
  59        -0.00000001
  60        -0.00000002
  61         0.00007520
  62         0.00071496
  63        -0.00007520
  64        -0.00071498
  65         0.02116987
  66         0.00064318
  67        -0.00725597
  68         0.00013553
  69         0.00013498
  70         0.00000005
  71         0.00118864
  72        -0.00315037
  73        -0.00000019
  74         0.00043170
  75         0.00036993
  76         0.00010256
  77         0.00024390
  78         0.00000003
  79         0.00000000
  80        -0.02116884
  81        -0.00064315
  82         0.00725580
  83         0.00013550
  84        -0.00013496
  85         0.00000005
  86         0.00118863
  87         0.00315028
  88        -0.00000019
  89        -0.00043169
  90        -0.00036991
  91        -0.00010256
  92         0.00024389
  93        -0.00000003
  94        -0.00000000
  95        -0.00005250
  96        -0.00056092
  97         0.00005250
  98         0.00056089
Sym=     6a  
Ene=   -11.2250
Spin= Alpha
Occup=    2.00000
   1        -0.04961398
   2        -0.00146410
   3         0.00484308
   4        -0.00086423
   5         0.00023320
   6        -0.00000006
   7        -0.00044254
   8        -0.00251601
   9        -0.00000006
  10        -0.00013389
  11        -0.00005890
  12        -0.00000017
  13         0.00012971
  14        -0.00000001
  15         0.00000001
  16        -0.04961652
  17        -0.00146419
  18         0.00484348
  19         0.00086425
  20         0.00023321
  21         0.00000004
  22         0.00044259
  23        -0.00251621
  24         0.00000006
  25        -0.00013390
  26        -0.00005891
  27        -0.00000017
  28        -0.00012971
  29        -0.00000001
  30        -0.00000001
  31         0.70225565
  32         0.01916294
  33        -0.01106084
  34        -0.00125707
  35        -0.00001213
  36        -0.00000011
  37         0.00228972
  38        -0.00058600
  39         0.00000016
  40        -0.00166620
  41        -0.00077638
  42        -0.00170845
  43         0.00003051
  44         0.00000001
  45         0.00000001
  46         0.70229294
  47         0.01916398
  48        -0.01106162
  49         0.00125715
  50        -0.00001213
  51         0.00000009
  52        -0.00228991
  53        -0.00058604
  54        -0.00000012
  55        -0.00166629
  56        -0.00077641
  57        -0.00170853
  58        -0.00003052
  59         0.00000001
  60        -0.00000001
  61        -0.00005019
  62         0.00043120
  63        -0.00005020
  64         0.00043117
  65        -0.01915783
  66        -0.00049756
  67         0.00310488
  68        -0.00047300
  69        -0.00026770
  70        -0.00000002
  71        -0.00019891
  72         0.00170798
  73        -0.00000001
  74        -0.00021069
  75        -0.00031298
  76        -0.00012788
  77        -0.00025200
  78        -0.00000003
  79        -0.00000004
  80        -0.01915894
  81        -0.00049759
  82         0.00310526
  83         0.00047301
  84        -0.00026771
  85         0.00000001
  86         0.00019897
  87         0.00170815
  88         0.00000002
  89        -0.00021071
  90        -0.00031300
  91        -0.00012789
  92         0.00025201
  93        -0.00000003
  94         0.00000004
  95         0.00000823
  96         0.00043296
  97         0.00000823
  98         0.00043299
Sym=     7a  
Ene=    -1.0832
Spin= Alpha
Occup=    2.00000
   1        -0.09249643
   2         0.17311564
   3         0.12760057
   4         0.02674941
   5        -0.07898710
   6         0.00000083
   7         0.00999525
   8        -0.00933503
   9         0.00000038
  10        -0.00058045
  11         0.01241595
  12        -0.00781372
  13        -0.00175587
  14         0.00000008
  15        -0.00000014
  16        -0.09249641
  17         0.17311560
  18         0.12760054
  19        -0.02674941
  20        -0.07898707
  21        -0.00000038
  22        -0.00999525
  23        -0.00933504
  24        -0.00000033
  25        -0.00058045
  26         0.01241595
  27        -0.00781372
  28         0.00175587
  29         0.00000006
  30         0.00000005
  31        -0.11666769
  32         0.22412599
  33         0.14324690
  34        -0.06016232
  35         0.02281455
  36        -0.00000622
  37        -0.00839248
  38        -0.00820766
  39        -0.00000195
  40        -0.00423486
  41         0.01353237
  42        -0.00869992
  43         0.00013184
  44         0.00000057
  45         0.00000041
  46        -0.11666766
  47         0.22412594
  48         0.14324685
  49         0.06016232
  50         0.02281453
  51         0.00000497
  52         0.00839247
  53        -0.00820766
  54         0.00000164
  55        -0.00423486
  56         0.01353236
  57        -0.00869992
  58        -0.00013184
  59         0.00000047
  60        -0.00000042
  61         0.04104844
  62         0.00724222
  63         0.04104845
  64         0.00724221
  65        -0.06270315
  66         0.11831804
  67         0.06762529
  68         0.06128098
  69         0.06276371
  70         0.00000177
  71         0.02572138
  72         0.00852872
  73         0.00000001
  74         0.00206008
  75         0.01048935
  76        -0.00612529
  77         0.00296814
  78         0.00000010
  79         0.00000089
  80        -0.06270314
  81         0.11831802
  82         0.06762529
  83        -0.06128097
  84         0.06276370
  85        -0.00000084
  86        -0.02572138
  87         0.00852872
  88         0.00000029
  89         0.00206008
  90         0.01048934
  91        -0.00612529
  92        -0.00296814
  93         0.00000005
  94        -0.00000079
  95         0.03590082
  96         0.01314005
  97         0.03590082
  98         0.01314005
Sym=     8a  
Ene=    -1.0052
Spin= Alpha
Occup=    2.00000
   1         0.09681336
   2        -0.18808767
   3        -0.13200334
   4        -0.05675042
   5         0.09149291
   6        -0.00000115
   7        -0.01203749
   8        -0.01398278
   9         0.00000017
  10         0.00779881
  11        -0.01573206
  12         0.00682053
  13         0.00347743
  14        -0.00000001
  15         0.00000019
  16        -0.09681337
  17         0.18808767
  18         0.13200335
  19        -0.05675045
  20        -0.09149292
  21        -0.00000048
  22        -0.01203749
  23         0.01398278
  24         0.00000027
  25        -0.00779881
  26         0.01573206
  27        -0.00682053
  28         0.00347743
  29        -0.00000002
  30         0.00000009
  31         0.12299436
  32        -0.23543631
  33        -0.18369869
  34         0.07154325
  35        -0.04690593
  36         0.00000599
  37         0.02846472
  38        -0.00446986
  39         0.00000236
  40         0.00455572
  41        -0.01436819
  42         0.00923754
  43         0.00041172
  44        -0.00000056
  45        -0.00000021
  46        -0.12299438
  47         0.23543636
  48         0.18369871
  49         0.07154328
  50         0.04690590
  51         0.00000460
  52         0.02846473
  53         0.00446985
  54         0.00000186
  55        -0.00455571
  56         0.01436819
  57        -0.00923754
  58         0.00041172
  59         0.00000044
  60        -0.00000024
  61         0.04625299
  62        -0.00088846
  63        -0.04625298
  64         0.00088847
  65         0.05618450
  66        -0.10966427
  67        -0.07950399
  68        -0.06490751
  69        -0.05660721
  70        -0.00000395
  71        -0.00933176
  72        -0.00269559
  73        -0.00000147
  74         0.00311207
  75        -0.01231867
  76         0.00485161
  77        -0.00491628
  78        -0.00000015
  79        -0.00000082
  80        -0.05618452
  81         0.10966431
  82         0.07950402
  83        -0.06490753
  84         0.05660723
  85        -0.00000337
  86        -0.00933177
  87         0.00269560
  88        -0.00000133
  89        -0.00311207
  90         0.01231867
  91        -0.00485161
  92        -0.00491628
  93         0.00000007
  94        -0.00000074
  95        -0.03323150
  96        -0.00732612
  97         0.03323152
  98         0.00732613
Sym=     9a  
Ene=    -0.9110
Spin= Alpha
Occup=    2.00000
   1         0.08721598
   2        -0.16579021
   3        -0.14925390
   4        -0.06346300
   5         0.00257722
   6        -0.00000243
   7        -0.03250800
   8        -0.00665529
   9        -0.00000071
  10        -0.00098971
  11        -0.01204182
  12         0.00745274
  13         0.00103491
  14        -0.00000028
  15         0.00000026
  16         0.08721597
  17        -0.16579018
  18        -0.14925387
  19         0.06346301
  20         0.00257722
  21         0.00000165
  22         0.03250800
  23        -0.00665528
  24         0.00000037
  25        -0.00098971
  26        -0.01204181
  27         0.00745273
  28        -0.00103491
  29        -0.00000021
  30        -0.00000016
  31        -0.00514942
  32         0.01202684
  33         0.01538683
  34        -0.02211047
  35        -0.19247092
  36        -0.00000390
  37        -0.01136116
  38        -0.02312327
  39        -0.00000060
  40         0.00141670
  41         0.00359020
  42        -0.00127288
  43         0.00829602
  44         0.00000043
  45         0.00000114
  46        -0.00514940
  47         0.01202680
  48         0.01538682
  49         0.02211043
  50        -0.19247087
  51         0.00000371
  52         0.01136115
  53        -0.02312327
  54         0.00000051
  55         0.00141670
  56         0.00359020
  57        -0.00127288
  58        -0.00829602
  59         0.00000038
  60        -0.00000097
  61        -0.08205052
  62        -0.03023182
  63        -0.08205052
  64        -0.03023182
  65        -0.09862849
  66         0.18765402
  67         0.16067860
  68         0.10675592
  69        -0.00471781
  70         0.00000071
  71         0.06355752
  72        -0.01010632
  73         0.00000015
  74         0.00538453
  75         0.01161005
  76        -0.00859666
  77        -0.00141804
  78         0.00000002
  79         0.00000107
  80        -0.09862846
  81         0.18765396
  82         0.16067854
  83        -0.10675588
  84        -0.00471783
  85         0.00000085
  86        -0.06355750
  87        -0.01010633
  88         0.00000051
  89         0.00538453
  90         0.01161005
  91        -0.00859666
  92         0.00141804
  93        -0.00000007
  94        -0.00000104
  95         0.10706369
  96         0.04605550
  97         0.10706367
  98         0.04605549
Sym=    10a  
Ene=    -0.8393
Spin= Alpha
Occup=    2.00000
   1         0.08235986
   2        -0.16174987
   3        -0.15339931
   4        -0.07034853
   5        -0.00158981
   6        -0.00000302
   7        -0.02737427
   8        -0.02115271
   9        -0.00000150
  10         0.00322408
  11        -0.01236808
  12         0.00608078
  13         0.00101709
  14        -0.00000019
  15         0.00000022
  16        -0.08235987
  17         0.16174989
  18         0.15339933
  19        -0.07034856
  20         0.00158981
  21        -0.00000231
  22        -0.02737428
  23         0.02115271
  24        -0.00000127
  25        -0.00322407
  26         0.01236808
  27        -0.00608078
  28         0.00101709
  29         0.00000012
  30         0.00000013
  31        -0.01396502
  32         0.03022744
  33         0.02128179
  34        -0.03634723
  35        -0.20399136
  36        -0.00000388
  37        -0.01787035
  38        -0.02706953
  39        -0.00000060
  40         0.00203178
  41         0.00462541
  42        -0.00179490
  43         0.01010435
  44         0.00000047
  45         0.00000104
  46         0.01396502
  47        -0.03022743
  48        -0.02128179
  49        -0.03634722
  50         0.20399140
  51        -0.00000344
  52        -0.01787035
  53         0.02706953
  54        -0.00000039
  55        -0.00203178
  56        -0.00462541
  57         0.00179490
  58         0.01010436
  59        -0.00000039
  60         0.00000084
  61         0.08239566
  62         0.02357690
  63        -0.08239564
  64        -0.02357689
  65        -0.09934133
  66         0.19887472
  67         0.17787660
  68         0.12652564
  69         0.01430853
  70         0.00000562
  71         0.05912207
  72        -0.02052770
  73         0.00000260
  74        -0.00290672
  75         0.01536048
  76        -0.00734000
  77        -0.00020241
  78         0.00000016
  79         0.00000125
  80         0.09934135
  81        -0.19887477
  82        -0.17787665
  83         0.12652567
  84        -0.01430850
  85         0.00000455
  86         0.05912209
  87         0.02052771
  88         0.00000203
  89         0.00290672
  90        -0.01536048
  91         0.00734000
  92        -0.00020241
  93        -0.00000000
  94         0.00000120
  95         0.10533369
  96         0.03070024
  97        -0.10533373
  98        -0.03070026
Sym=    11a  
Ene=    -0.7412
Spin= Alpha
Occup=    2.00000
   1        -0.04413444
   2         0.08615093
   3         0.08926883
   4         0.03930220
   5         0.20229651
   6         0.00000153
   7         0.02038961
   8         0.07993592
   9         0.00000094
  10         0.00208373
  11         0.01075436
  12        -0.00368281
  13         0.00720032
  14         0.00000017
  15         0.00000035
  16        -0.04413443
  17         0.08615091
  18         0.08926880
  19        -0.03930220
  20         0.20229641
  21        -0.00000152
  22        -0.02038961