[Molden Format]
[N_Atoms]
                   10
[Atoms] (AU)
C1          1      6           1.50460820      2.23558875      0.00000000
C2          2      6          -1.50460820      2.23558875      0.00000000
C3          3      6           2.53908209      0.01871122      0.00000000
C4          4      6          -2.53908209      0.01871122      0.00000000
H5          5      1          -2.22480493      4.12473475      0.00000000
H6          6      1           2.22480493      4.12473475      0.00000000
C7          7      6           1.35186649     -2.25819770      0.00000000
C8          8      6          -1.35186649     -2.25819770      0.00000000
H9          9      1           2.24586960     -4.07789859      0.00000000
H10        10      1          -2.24586960     -4.07789859      0.00000000
[Charge] (Mulliken)
 -0.24795964012084859     
 -0.24795964008209559     
   3.8348750125889453E-002
   3.8348750135081211E-002
  0.22384122364281400     
  0.22384122363719539     
 -0.23101604567697542     
 -0.23101604565301415     
  0.21678571200417862     
  0.21678571198693919     
[GTO] (AU)
   1
   s   6
  3.047524880E+03  1.834737132E-03
  4.573695180E+02  1.403732281E-02
  1.039486850E+02  6.884262227E-02
  2.921015530E+01  2.321844432E-01
  9.286662960E+00  4.679413484E-01
  3.163926960E+00  3.623119853E-01
   s   3
  7.868272350E+00 -1.193324198E-01
  1.881288540E+00 -1.608541517E-01
  5.442492580E-01  1.143456438E+00
   s   1
  1.687144782E-01  1.000000000E+00
   p   3
  7.868272350E+00  6.899906659E-02
  1.881288540E+00  3.164239610E-01
  5.442492580E-01  7.443082909E-01
   p   1
  1.687144782E-01  1.000000000E+00
   d   1
  8.000000000E-01  1.000000000E+00
 
   2
   s   6
  3.047524880E+03  1.834737132E-03
  4.573695180E+02  1.403732281E-02
  1.039486850E+02  6.884262227E-02
  2.921015530E+01  2.321844432E-01
  9.286662960E+00  4.679413484E-01
  3.163926960E+00  3.623119853E-01
   s   3
  7.868272350E+00 -1.193324198E-01
  1.881288540E+00 -1.608541517E-01
  5.442492580E-01  1.143456438E+00
   s   1
  1.687144782E-01  1.000000000E+00
   p   3
  7.868272350E+00  6.899906659E-02
  1.881288540E+00  3.164239610E-01
  5.442492580E-01  7.443082909E-01
   p   1
  1.687144782E-01  1.000000000E+00
   d   1
  8.000000000E-01  1.000000000E+00
 
   3
   s   6
  3.047524880E+03  1.834737132E-03
  4.573695180E+02  1.403732281E-02
  1.039486850E+02  6.884262227E-02
  2.921015530E+01  2.321844432E-01
  9.286662960E+00  4.679413484E-01
  3.163926960E+00  3.623119853E-01
   s   3
  7.868272350E+00 -1.193324198E-01
  1.881288540E+00 -1.608541517E-01
  5.442492580E-01  1.143456438E+00
   s   1
  1.687144782E-01  1.000000000E+00
   p   3
  7.868272350E+00  6.899906659E-02
  1.881288540E+00  3.164239610E-01
  5.442492580E-01  7.443082909E-01
   p   1
  1.687144782E-01  1.000000000E+00
   d   1
  8.000000000E-01  1.000000000E+00
 
   4
   s   6
  3.047524880E+03  1.834737132E-03
  4.573695180E+02  1.403732281E-02
  1.039486850E+02  6.884262227E-02
  2.921015530E+01  2.321844432E-01
  9.286662960E+00  4.679413484E-01
  3.163926960E+00  3.623119853E-01
   s   3
  7.868272350E+00 -1.193324198E-01
  1.881288540E+00 -1.608541517E-01
  5.442492580E-01  1.143456438E+00
   s   1
  1.687144782E-01  1.000000000E+00
   p   3
  7.868272350E+00  6.899906659E-02
  1.881288540E+00  3.164239610E-01
  5.442492580E-01  7.443082909E-01
   p   1
  1.687144782E-01  1.000000000E+00
   d   1
  8.000000000E-01  1.000000000E+00
 
   5
   s   3
  1.873113696E+01  3.349460434E-02
  2.825394365E+00  2.347269535E-01
  6.401216923E-01  8.137573261E-01
   s   1
  1.612777588E-01  1.000000000E+00
 
   6
   s   3
  1.873113696E+01  3.349460434E-02
  2.825394365E+00  2.347269535E-01
  6.401216923E-01  8.137573261E-01
   s   1
  1.612777588E-01  1.000000000E+00
 
   7
   s   6
  3.047524880E+03  1.834737132E-03
  4.573695180E+02  1.403732281E-02
  1.039486850E+02  6.884262227E-02
  2.921015530E+01  2.321844432E-01
  9.286662960E+00  4.679413484E-01
  3.163926960E+00  3.623119853E-01
   s   3
  7.868272350E+00 -1.193324198E-01
  1.881288540E+00 -1.608541517E-01
  5.442492580E-01  1.143456438E+00
   s   1
  1.687144782E-01  1.000000000E+00
   p   3
  7.868272350E+00  6.899906659E-02
  1.881288540E+00  3.164239610E-01
  5.442492580E-01  7.443082909E-01
   p   1
  1.687144782E-01  1.000000000E+00
   d   1
  8.000000000E-01  1.000000000E+00
 
   8
   s   6
  3.047524880E+03  1.834737132E-03
  4.573695180E+02  1.403732281E-02
  1.039486850E+02  6.884262227E-02
  2.921015530E+01  2.321844432E-01
  9.286662960E+00  4.679413484E-01
  3.163926960E+00  3.623119853E-01
   s   3
  7.868272350E+00 -1.193324198E-01
  1.881288540E+00 -1.608541517E-01
  5.442492580E-01  1.143456438E+00
   s   1
  1.687144782E-01  1.000000000E+00
   p   3
  7.868272350E+00  6.899906659E-02
  1.881288540E+00  3.164239610E-01
  5.442492580E-01  7.443082909E-01
   p   1
  1.687144782E-01  1.000000000E+00
   d   1
  8.000000000E-01  1.000000000E+00
 
   9
   s   3
  1.873113696E+01  3.349460434E-02
  2.825394365E+00  2.347269535E-01
  6.401216923E-01  8.137573261E-01
   s   1
  1.612777588E-01  1.000000000E+00
 
  10
   s   3
  1.873113696E+01  3.349460434E-02
  2.825394365E+00  2.347269535E-01
  6.401216923E-01  8.137573261E-01
   s   1
  1.612777588E-01  1.000000000E+00
 
[MO]
Sym=     1a  
Ene=   -11.2350
Spin= Alpha
Occup=    2.00000
   1         0.69346454
   2         0.01922024
   3        -0.00634110
   4         0.00058445
   5        -0.00007220
   6         0.00000000
   7        -0.00020047
   8         0.00042508
   9        -0.00000000
  10        -0.00200814
  11        -0.00111282
  12        -0.00182752
  13        -0.00011066
  14        -0.00000000
  15        -0.00000000
  16         0.69346455
  17         0.01922024
  18        -0.00634110
  19        -0.00058445
  20        -0.00007220
  21         0.00000000
  22         0.00020047
  23         0.00042508
  24        -0.00000000
  25        -0.00200814
  26        -0.00111282
  27        -0.00182752
  28         0.00011066
  29         0.00000000
  30        -0.00000000
  31         0.05871745
  32         0.00140530
  33         0.00246690
  34         0.00022264
  35        -0.00006179
  36        -0.00000000
  37        -0.00037637
  38         0.00098982
  39         0.00000000
  40        -0.00036228
  41        -0.00021182
  42        -0.00026643
  43        -0.00000866
  44        -0.00000000
  45        -0.00000000
  46         0.05871745
  47         0.00140530
  48         0.00246690
  49        -0.00022264
  50        -0.00006179
  51        -0.00000000
  52         0.00037637
  53         0.00098982
  54         0.00000000
  55        -0.00036228
  56        -0.00021182
  57        -0.00026643
  58         0.00000866
  59         0.00000000
  60         0.00000000
  61        -0.00019715
  62         0.00142028
  63        -0.00019715
  64         0.00142028
  65         0.10575637
  66         0.00281281
  67        -0.00064765
  68         0.00006508
  69        -0.00000846
  70        -0.00000000
  71        -0.00004870
  72         0.00019901
  73        -0.00000000
  74        -0.00028375
  75        -0.00013073
  76        -0.00032151
  77         0.00000418
  78         0.00000000
  79        -0.00000000
  80         0.10575637
  81         0.00281281
  82        -0.00064765
  83        -0.00006508
  84        -0.00000846
  85        -0.00000000
  86         0.00004870
  87         0.00019901
  88         0.00000000
  89        -0.00028375
  90        -0.00013073
  91        -0.00032151
  92        -0.00000418
  93        -0.00000000
  94         0.00000000
  95        -0.00004342
  96         0.00034314
  97        -0.00004342
  98         0.00034314
Sym=     2a  
Ene=   -11.2340
Spin= Alpha
Occup=    2.00000
   1        -0.10837358
   2        -0.00314623
   3         0.00118691
   4        -0.00003423
   5         0.00002898
   6         0.00000000
   7         0.00009380
   8        -0.00028419
   9         0.00000000
  10         0.00030875
  11         0.00028504
  12         0.00023576
  13         0.00000060
  14         0.00000000
  15         0.00000000
  16        -0.10837358
  17        -0.00314623
  18         0.00118691
  19         0.00003423
  20         0.00002898
  21         0.00000000
  22        -0.00009380
  23        -0.00028419
  24        -0.00000000
  25         0.00030875
  26         0.00028504
  27         0.00023576
  28        -0.00000060
  29         0.00000000
  30        -0.00000000
  31         0.02709215
  32         0.00056356
  33         0.00166043
  34         0.00003982
  35         0.00016002
  36         0.00000000
  37        -0.00039764
  38        -0.00117866
  39        -0.00000000
  40        -0.00019210
  41        -0.00029943
  42        -0.00014037
  43        -0.00000954
  44         0.00000000
  45        -0.00000000
  46         0.02709215
  47         0.00056356
  48         0.00166043
  49        -0.00003982
  50         0.00016002
  51        -0.00000000
  52         0.00039764
  53        -0.00117866
  54         0.00000000
  55        -0.00019210
  56        -0.00029943
  57        -0.00014037
  58         0.00000954
  59        -0.00000000
  60         0.00000000
  61         0.00002793
  62        -0.00007410
  63         0.00002793
  64        -0.00007410
  65         0.69487559
  66         0.01957691
  67        -0.00608710
  68        -0.00003466
  69         0.00015135
  70        -0.00000000
  71        -0.00064389
  72        -0.00054616
  73         0.00000000
  74        -0.00167622
  75        -0.00138614
  76        -0.00180699
  77         0.00006219
  78        -0.00000000
  79        -0.00000000
  80         0.69487560
  81         0.01957691
  82        -0.00608710
  83         0.00003466
  84         0.00015135
  85        -0.00000000
  86         0.00064389
  87        -0.00054616
  88         0.00000000
  89        -0.00167622
  90        -0.00138614
  91        -0.00180699
  92        -0.00006219
  93        -0.00000000
  94        -0.00000000
  95        -0.00019144
  96         0.00122315
  97        -0.00019144
  98         0.00122315
Sym=     3a  
Ene=   -11.2340
Spin= Alpha
Occup=    2.00000
   1         0.69993607
   2         0.01962997
   3        -0.01329690
   4         0.00007139
   5        -0.00013884
   6        -0.00000000
   7         0.00182524
   8         0.00254791
   9        -0.00000000
  10        -0.00120363
  11        -0.00087242
  12        -0.00158565
  13        -0.00016095
  14        -0.00000000
  15         0.00000000
  16        -0.69993606
  17        -0.01962997
  18         0.01329690
  19         0.00007139
  20         0.00013884
  21        -0.00000000
  22         0.00182524
  23        -0.00254791
  24         0.00000000
  25         0.00120363
  26         0.00087242
  27         0.00158565
  28        -0.00016095
  29         0.00000000
  30         0.00000000
  31         0.05694981
  32         0.00126653
  33         0.00616808
  34         0.00012977
  35        -0.00011470
  36        -0.00000000
  37        -0.00175504
  38         0.00137275
  39        -0.00000000
  40        -0.00043295
  41        -0.00033409
  42        -0.00025697
  43        -0.00001981
  44         0.00000000
  45         0.00000000
  46        -0.05694981
  47        -0.00126653
  48        -0.00616808
  49         0.00012977
  50         0.00011470
  51        -0.00000000
  52        -0.00175504
  53        -0.00137275
  54        -0.00000000
  55         0.00043295
  56         0.00033409
  57         0.00025697
  58        -0.00001981
  59         0.00000000
  60         0.00000000
  61         0.00021824
  62        -0.00089536
  63        -0.00021824
  64         0.00089536
  65         0.05089923
  66         0.00146346
  67        -0.00286029
  68        -0.00002282
  69         0.00001603
  70         0.00000000
  71         0.00084384
  72        -0.00107171
  73         0.00000000
  74        -0.00010252
  75         0.00004209
  76        -0.00008327
  77        -0.00001705
  78         0.00000000
  79         0.00000000
  80        -0.05089923
  81        -0.00146346
  82         0.00286029
  83        -0.00002282
  84        -0.00001603
  85        -0.00000000
  86         0.00084384
  87         0.00107171
  88        -0.00000000
  89         0.00010252
  90        -0.00004209
  91         0.00008327
  92        -0.00001705
  93        -0.00000000
  94        -0.00000000
  95        -0.00007081
  96        -0.00012953
  97         0.00007081
  98         0.00012953
Sym=     4a  
Ene=   -11.2330
Spin= Alpha
Occup=    2.00000
   1        -0.05384988
   2        -0.00148546
   3        -0.00099632
   4        -0.00001669
   5        -0.00001108
   6        -0.00000000
   7         0.00041041
   8         0.00094576
   9         0.00000000
  10         0.00011224
  11         0.00019745
  12         0.00015232
  13         0.00000569
  14        -0.00000000
  15         0.00000000
  16         0.05384988
  17         0.00148546
  18         0.00099632
  19        -0.00001669
  20         0.00001108
  21         0.00000000
  22         0.00041041
  23        -0.00094576
  24        -0.00000000
  25        -0.00011224
  26        -0.00019745
  27        -0.00015232
  28         0.00000569
  29        -0.00000000
  30        -0.00000000
  31         0.03511843
  32         0.00083934
  33         0.00546961
  34         0.00010259
  35         0.00011604
  36        -0.00000000
  37        -0.00170398
  38        -0.00116098
  39         0.00000000
  40        -0.00035991
  41        -0.00044844
  42        -0.00019791
  43        -0.00007576
  44        -0.00000000
  45         0.00000000
  46        -0.03511843
  47        -0.00083934
  48        -0.00546961
  49         0.00010259
  50        -0.00011604
  51        -0.00000000
  52        -0.00170398
  53         0.00116098
  54         0.00000000
  55         0.00035991
  56         0.00044844
  57         0.00019791
  58        -0.00007576
  59        -0.00000000
  60        -0.00000000
  61         0.00004364
  62         0.00032748
  63        -0.00004364
  64        -0.00032748
  65         0.70121607
  66         0.01993272
  67        -0.01415795
  68        -0.00007896
  69         0.00022404
  70        -0.00000000
  71         0.00222562
  72        -0.00262947
  73         0.00000000
  74        -0.00094957
  75        -0.00100515
  76        -0.00163325
  77         0.00014836
  78        -0.00000000
  79        -0.00000000
  80        -0.70121606
  81        -0.01993271
  82         0.01415795
  83        -0.00007896
  84        -0.00022404
  85         0.00000000
  86         0.00222562
  87         0.00262947
  88        -0.00000000
  89         0.00094957
  90         0.00100515
  91         0.00163325
  92         0.00014836
  93         0.00000000
  94        -0.00000000
  95        -0.00017903
  96         0.00081247
  97         0.00017903
  98        -0.00081247
Sym=     5a  
Ene=   -11.2210
Spin= Alpha
Occup=    2.00000
   1         0.05488696
   2         0.00187642
   3        -0.00884483
   4         0.00020320
   5        -0.00015668
   6         0.00000000
   7         0.00082714
   8         0.00414704
   9        -0.00000000
  10         0.00027556
  11         0.00010828
  12         0.00002625
  13        -0.00008044
  14         0.00000000
  15        -0.00000000
  16        -0.05488697
  17        -0.00187642
  18         0.00884483
  19         0.00020320
  20         0.00015668
  21         0.00000000
  22         0.00082714
  23        -0.00414704
  24         0.00000000
  25        -0.00027556
  26        -0.00010828
  27        -0.00002625
  28        -0.00008044
  29        -0.00000000
  30         0.00000000
  31        -0.70092016
  32        -0.02005624
  33         0.01594382
  34         0.00115533
  35        -0.00001785
  36        -0.00000000
  37        -0.00411194
  38         0.00042525
  39         0.00000000
  40         0.00170415
  41         0.00076833
  42         0.00166140
  43         0.00000277
  44        -0.00000000
  45         0.00000000
  46         0.70092031
  47         0.02005625
  48        -0.01594382
  49         0.00115533
  50         0.00001785
  51         0.00000000
  52        -0.00411194
  53        -0.00042525
  54        -0.00000000
  55        -0.00170415
  56        -0.00076833
  57        -0.00166140
  58         0.00000277
  59        -0.00000000
  60        -0.00000000
  61         0.00007103
  62         0.00067877
  63        -0.00007103
  64        -0.00067877
  65         0.03981847
  66         0.00131370
  67        -0.00845506
  68         0.00012639
  69         0.00015948
  70        -0.00000000
  71         0.00118088
  72        -0.00375336
  73         0.00000000
  74         0.00039252
  75         0.00026620
  76         0.00006071
  77         0.00015898
  78        -0.00000000
  79         0.00000000
  80        -0.03981847
  81        -0.00131370
  82         0.00845507
  83         0.00012639
  84        -0.00015948
  85         0.00000000
  86         0.00118088
  87         0.00375336
  88        -0.00000000
  89        -0.00039252
  90        -0.00026620
  91        -0.00006071
  92         0.00015898
  93        -0.00000000
  94        -0.00000000
  95        -0.00006516
  96        -0.00062044
  97         0.00006516
  98         0.00062044
Sym=     6a  
Ene=   -11.2210
Spin= Alpha
Occup=    2.00000
   1        -0.05470221
   2        -0.00166885
   3         0.00470811
   4        -0.00079949
   5         0.00021722
   6        -0.00000000
   7        -0.00020226
   8        -0.00231825
   9        -0.00000000
  10        -0.00004952
  11        -0.00005593
  12         0.00001844
  13         0.00013760
  14        -0.00000000
  15         0.00000000
  16        -0.05470220
  17        -0.00166885
  18         0.00470810
  19         0.00079949
  20         0.00021722
  21        -0.00000000
  22         0.00020226
  23        -0.00231825
  24         0.00000000
  25        -0.00004952
  26        -0.00005593
  27         0.00001844
  28        -0.00013760
  29         0.00000000
  30         0.00000000
  31         0.70117824
  32         0.01955293
  33        -0.01145215
  34        -0.00109552
  35        -0.00000680
  36         0.00000000
  37         0.00260835
  38        -0.00027710
  39        -0.00000000
  40        -0.00172344
  41        -0.00082826
  42        -0.00178142
  43        -0.00001175
  44        -0.00000000
  45         0.00000000
  46         0.70117809
  47         0.01955293
  48        -0.01145214
  49         0.00109552
  50        -0.00000680
  51        -0.00000000
  52        -0.00260835
  53        -0.00027710
  54         0.00000000
  55        -0.00172344
  56        -0.00082826
  57        -0.00178142
  58         0.00001175
  59         0.00000000
  60        -0.00000000
  61        -0.00004743
  62         0.00034154
  63        -0.00004743
  64         0.00034154
  65        -0.03627040
  66        -0.00106838
  67         0.00378791
  68        -0.00057748
  69        -0.00024300
  70         0.00000000
  71        -0.00014652
  72         0.00191827
  73        -0.00000000
  74        -0.00012704
  75        -0.00019519
  76        -0.00004656
  77        -0.00020200
  78         0.00000000
  79         0.00000000
  80        -0.03627039
  81        -0.00106838
  82         0.00378791
  83         0.00057748
  84        -0.00024300
  85         0.00000000
  86         0.00014652
  87         0.00191827
  88         0.00000000
  89        -0.00012704
  90        -0.00019519
  91        -0.00004656
  92         0.00020200
  93         0.00000000
  94        -0.00000000
  95        -0.00001583
  96         0.00035339
  97        -0.00001583
  98         0.00035339
Sym=     7a  
Ene=    -1.1127
Spin= Alpha
Occup=    2.00000
   1        -0.08691688
   2         0.16191718
   3         0.10339502
   4         0.04163927
   5        -0.07804943
   6        -0.00000000
   7         0.02009368
   8        -0.00796739
   9        -0.00000000
  10         0.00201523
  11         0.01176517
  12        -0.00775180
  13        -0.00270090
  14        -0.00000000
  15         0.00000000
  16        -0.08691688
  17         0.16191718
  18         0.10339502
  19        -0.04163927
  20        -0.07804943
  21        -0.00000000
  22        -0.02009368
  23        -0.00796739
  24         0.00000000
  25         0.00201523
  26         0.01176517
  27        -0.00775180
  28         0.00270090
  29        -0.00000000
  30        -0.00000000
  31        -0.11799111
  32         0.22559984
  33         0.14211082
  34        -0.06543073
  35         0.01339800
  36         0.00000000
  37        -0.00912698
  38        -0.00371149
  39         0.00000000
  40        -0.00383210
  41         0.01285982
  42        -0.00894750
  43        -0.00046706
  44         0.00000000
  45         0.00000000
  46        -0.11799111
  47         0.22559984
  48         0.14211082
  49         0.06543073
  50         0.01339800
  51        -0.00000000
  52         0.00912698
  53        -0.00371149
  54        -0.00000000
  55        -0.00383210
  56         0.01285982
  57        -0.00894750
  58         0.00046706
  59         0.00000000
  60         0.00000000
  61         0.03924063
  62         0.01020439
  63         0.03924063
  64         0.01020439
  65        -0.07045132
  66         0.13192587
  67         0.07556336
  68         0.05205923
  69         0.07089033
  70         0.00000000
  71         0.02344325
  72         0.00897200
  73        -0.00000000
  74         0.00191082
  75         0.01078447
  76        -0.00671005
  77         0.00269073
  78        -0.00000000
  79         0.00000000
  80        -0.07045132
  81         0.13192587
  82         0.07556336
  83        -0.05205923
  84         0.07089033
  85         0.00000000
  86        -0.02344325
  87         0.00897200
  88         0.00000000
  89         0.00191082
  90         0.01078447
  91        -0.00671005
  92        -0.00269073
  93        -0.00000000
  94         0.00000000
  95         0.03452319
  96         0.01152884
  97         0.03452319
  98         0.01152884
Sym=     8a  
Ene=    -1.0077
Spin= Alpha
Occup=    2.00000
   1         0.08558339
   2        -0.16713211
   3        -0.10996955
   4        -0.07435339
   5         0.08824895
   6         0.00000000
   7        -0.01414796
   8        -0.01535406
   9        -0.00000000
  10         0.00838397
  11        -0.01511865
  12         0.00602130
  13         0.00550340
  14        -0.00000000
  15         0.00000000
  16        -0.08558339
  17         0.16713211
  18         0.10996955
  19        -0.07435339
  20        -0.08824895
  21        -0.00000000
  22        -0.01414796
  23         0.01535406
  24         0.00000000
  25        -0.00838397
  26         0.01511865
  27        -0.00602130
  28         0.00550340
  29        -0.00000000
  30         0.00000000
  31         0.12608744
  32        -0.24117206
  33        -0.19162606
  34         0.08520390
  35        -0.02433571
  36        -0.00000000
  37         0.03636825
  38        -0.00214558
  39        -0.00000000
  40         0.00422651
  41        -0.01424239
  42         0.00941871
  43         0.00080712
  44        -0.00000000
  45        -0.00000000
  46        -0.12608744
  47         0.24117206
  48         0.19162606
  49         0.08520390
  50         0.02433571
  51        -0.00000000
  52         0.03636825
  53         0.00214558
  54        -0.00000000
  55        -0.00422651
  56         0.01424239
  57        -0.00941871
  58         0.00080712
  59        -0.00000000
  60        -0.00000000
  61         0.04106202
  62        -0.00073421
  63        -0.04106202
  64         0.00073421
  65         0.06623534
  66        -0.12952661
  67        -0.08720423
  68        -0.07112131
  69        -0.06988460
  70        -0.00000000
  71        -0.01181470
  72         0.00428213
  73         0.00000000
  74         0.00551254
  75        -0.01379450
  76         0.00518834
  77        -0.00516320
  78         0.00000000
  79        -0.00000000
  80        -0.06623534
  81         0.12952661
  82         0.08720423
  83        -0.07112131
  84         0.06988460
  85         0.00000000
  86        -0.01181470
  87        -0.00428213
  88        -0.00000000
  89        -0.00551254
  90         0.01379450
  91        -0.00518834
  92        -0.00516320
  93        -0.00000000
  94        -0.00000000
  95        -0.03578456
  96        -0.00459757
  97         0.03578456
  98         0.00459757
Sym=     9a  
Ene=    -0.9259
Spin= Alpha
Occup=    2.00000
   1         0.09113899
   2        -0.17200605
   3        -0.14807924
   4        -0.07286448
   5        -0.00074227
   6         0.00000000
   7        -0.04187979
   8        -0.01117874
   9        -0.00000000
  10        -0.00419762
  11        -0.01115775
  12         0.00767476
  13         0.00106565
  14         0.00000000
  15         0.00000000
  16         0.09113899
  17        -0.17200605
  18        -0.14807924
  19         0.07286448
  20        -0.00074227
  21         0.00000000
  22         0.04187979
  23        -0.01117874
  24         0.00000000
  25        -0.00419762
  26        -0.01115775
  27         0.00767476
  28        -0.00106565
  29         0.00000000
  30         0.00000000
  31        -0.00428444
  32         0.00941656
  33         0.00946014
  34        -0.00889935
  35        -0.19994425
  36         0.00000000
  37        -0.00434863
  38        -0.02233046
  39         0.00000000
  40         0.00077666
  41         0.00191939
  42        -0.00071776
  43         0.00921240
  44        -0.00000000
  45         0.00000000
  46        -0.00428444
  47         0.00941656
  48         0.00946014
  49         0.00889935
  50        -0.19994425
  51         0.00000000
  52         0.00434863
  53        -0.02233046
  54        -0.00000000
  55         0.00077666
  56         0.00191939
  57        -0.00071776
  58        -0.00921240
  59         0.00000000
  60        -0.00000000
  61        -0.08709896
  62        -0.03337654
  63        -0.08709896
  64        -0.03337654
  65        -0.09775557
  66         0.18496065
  67         0.15648011
  68         0.09351670
  69         0.00322471
  70         0.00000000
  71         0.05629869
  72        -0.00917302
  73         0.00000000
  74         0.00489657
  75         0.01118791
  76        -0.00833967
  77        -0.00047391
  78         0.00000000
  79         0.00000000
  80        -0.09775557
  81         0.18496065
  82         0.15648011
  83        -0.09351670
  84         0.00322471
  85         0.00000000
  86        -0.05629869
  87        -0.00917302
  88        -0.00000000
  89         0.00489657
  90         0.01118791
  91        -0.00833967
  92         0.00047391
  93        -0.00000000
  94         0.00000000
  95         0.09734165
  96         0.03989027
  97         0.09734165
  98         0.03989027
Sym=    10a  
Ene=    -0.8396
Spin= Alpha
Occup=    2.00000
   1         0.08700597
   2        -0.17226344
   3        -0.16017750
   4        -0.09219553
   5         0.01234914
   6         0.00000000
   7        -0.03736322
   8        -0.02453611
   9        -0.00000000
  10         0.00485979
  11        -0.01224630
  12         0.00603267
  13         0.00205421
  14        -0.00000000
  15         0.00000000
  16        -0.08700597
  17         0.17226344
  18         0.16017750
  19        -0.09219553
  20        -0.01234914
  21        -0.00000000
  22        -0.03736322
  23         0.02453611
  24         0.00000000
  25        -0.00485979
  26         0.01224630
  27        -0.00603267
  28         0.00205421
  29        -0.00000000
  30        -0.00000000
  31        -0.00617532
  32         0.01380506
  33         0.00903044
  34        -0.01304817
  35        -0.22236865
  36        -0.00000000
  37        -0.00629893
  38        -0.02640852
  39         0.00000000
  40         0.00094819
  41         0.00215021
  42        -0.00075338
  43         0.01152922
  44        -0.00000000
  45         0.00000000
  46         0.00617532
  47        -0.01380506
  48        -0.00903044
  49        -0.01304817
  50         0.22236865
  51         0.00000000
  52        -0.00629893
  53         0.02640852
  54         0.00000000
  55        -0.00094819
  56        -0.00215021
  57         0.00075338
  58         0.01152922
  59        -0.00000000
  60         0.00000000
  61         0.08289989
  62         0.02010104
  63        -0.08289989
  64        -0.02010104
  65        -0.09614440
  66         0.19159758
  67         0.17347859
  68         0.11806912
  69         0.01775504
  70         0.00000000
  71         0.05404221
  72        -0.02233389
  73         0.00000000
  74        -0.00435463
  75         0.01402282
  76        -0.00681117
  77         0.00087052
  78        -0.00000000
  79         0.00000000
  80         0.09614440
  81        -0.19159758
  82        -0.17347859
  83         0.11806912
  84        -0.01775504
  85        -0.00000000
  86         0.05404221
  87         0.02233389
  88         0.00000000
  89         0.00435463
  90        -0.01402282
  91         0.00681117
  92         0.00087052
  93         0.00000000
  94        -0.00000000
  95         0.09670262
  96         0.02555775
  97        -0.09670262
  98        -0.02555775
Sym=    11a  
Ene=    -0.7537
Spin= Alpha
Occup=    2.00000
   1        -0.04111941
   2         0.07970726
   3         0.07999658
   4         0.03232136
   5         0.20235215
   6         0.00000000
   7         0.02342573
   8         0.08280267
   9        -0.00000000
  10         0.00339290
  11         0.00868032
  12        -0.00312818
  13         0.00576384
  14        -0.00000000
  15        -0.00000000
  16        -0.04111941
  17         0.07970726
  18         0.07999658
  19        -0.03232136
  20         0.20235215
  21        -0.00000000
  22        -0.02342573