[Molden Format]
[N_Atoms]
                   10
[Atoms] (AU)
C1          1      6           1.50460820      2.23558875      0.00000000
C1          2      6          -1.50460820      2.23558875      0.00000000
C2          3      6           2.53908209      0.01871122      0.00000000
C2          4      6          -2.53908209      0.01871122      0.00000000
H3          5      1          -2.22480493      4.12473475      0.00000000
H3          6      1           2.22480493      4.12473475      0.00000000
C4          7      6           1.35186649     -2.25819770      0.00000000
C4          8      6          -1.35186649     -2.25819770      0.00000000
H5          9      1           2.24586960     -4.07789859      0.00000000
H5         10      1          -2.24586960     -4.07789859      0.00000000
[Charge] (Mulliken)
 -0.49592417448298143     
 -0.49592417448298143     
   7.6714345086205782E-002
   7.6714345086205782E-002
  0.44767668071930711     
  0.44767668071930711     
 -0.46203961403341864     
 -0.46203961403341864     
  0.43357276271049128     
  0.43357276271049128     
[GTO] (AU)
   1
   s   6
  3.047524880E+03  1.834737132E-03
  4.573695180E+02  1.403732281E-02
  1.039486850E+02  6.884262227E-02
  2.921015530E+01  2.321844432E-01
  9.286662960E+00  4.679413484E-01
  3.163926960E+00  3.623119853E-01
   s   3
  7.868272350E+00 -1.193324198E-01
  1.881288540E+00 -1.608541517E-01
  5.442492580E-01  1.143456438E+00
   s   1
  1.687144782E-01  1.000000000E+00
   p   3
  7.868272350E+00  6.899906659E-02
  1.881288540E+00  3.164239610E-01
  5.442492580E-01  7.443082909E-01
   p   1
  1.687144782E-01  1.000000000E+00
   d   1
  8.000000000E-01  1.000000000E+00
 
   2
   s   6
  3.047524880E+03  1.834737132E-03
  4.573695180E+02  1.403732281E-02
  1.039486850E+02  6.884262227E-02
  2.921015530E+01  2.321844432E-01
  9.286662960E+00  4.679413484E-01
  3.163926960E+00  3.623119853E-01
   s   3
  7.868272350E+00 -1.193324198E-01
  1.881288540E+00 -1.608541517E-01
  5.442492580E-01  1.143456438E+00
   s   1
  1.687144782E-01  1.000000000E+00
   p   3
  7.868272350E+00  6.899906659E-02
  1.881288540E+00  3.164239610E-01
  5.442492580E-01  7.443082909E-01
   p   1
  1.687144782E-01  1.000000000E+00
   d   1
  8.000000000E-01  1.000000000E+00
 
   3
   s   6
  3.047524880E+03  1.834737132E-03
  4.573695180E+02  1.403732281E-02
  1.039486850E+02  6.884262227E-02
  2.921015530E+01  2.321844432E-01
  9.286662960E+00  4.679413484E-01
  3.163926960E+00  3.623119853E-01
   s   3
  7.868272350E+00 -1.193324198E-01
  1.881288540E+00 -1.608541517E-01
  5.442492580E-01  1.143456438E+00
   s   1
  1.687144782E-01  1.000000000E+00
   p   3
  7.868272350E+00  6.899906659E-02
  1.881288540E+00  3.164239610E-01
  5.442492580E-01  7.443082909E-01
   p   1
  1.687144782E-01  1.000000000E+00
   d   1
  8.000000000E-01  1.000000000E+00
 
   4
   s   6
  3.047524880E+03  1.834737132E-03
  4.573695180E+02  1.403732281E-02
  1.039486850E+02  6.884262227E-02
  2.921015530E+01  2.321844432E-01
  9.286662960E+00  4.679413484E-01
  3.163926960E+00  3.623119853E-01
   s   3
  7.868272350E+00 -1.193324198E-01
  1.881288540E+00 -1.608541517E-01
  5.442492580E-01  1.143456438E+00
   s   1
  1.687144782E-01  1.000000000E+00
   p   3
  7.868272350E+00  6.899906659E-02
  1.881288540E+00  3.164239610E-01
  5.442492580E-01  7.443082909E-01
   p   1
  1.687144782E-01  1.000000000E+00
   d   1
  8.000000000E-01  1.000000000E+00
 
   5
   s   3
  1.873113696E+01  3.349460434E-02
  2.825394365E+00  2.347269535E-01
  6.401216923E-01  8.137573261E-01
   s   1
  1.612777588E-01  1.000000000E+00
 
   6
   s   3
  1.873113696E+01  3.349460434E-02
  2.825394365E+00  2.347269535E-01
  6.401216923E-01  8.137573261E-01
   s   1
  1.612777588E-01  1.000000000E+00
 
   7
   s   6
  3.047524880E+03  1.834737132E-03
  4.573695180E+02  1.403732281E-02
  1.039486850E+02  6.884262227E-02
  2.921015530E+01  2.321844432E-01
  9.286662960E+00  4.679413484E-01
  3.163926960E+00  3.623119853E-01
   s   3
  7.868272350E+00 -1.193324198E-01
  1.881288540E+00 -1.608541517E-01
  5.442492580E-01  1.143456438E+00
   s   1
  1.687144782E-01  1.000000000E+00
   p   3
  7.868272350E+00  6.899906659E-02
  1.881288540E+00  3.164239610E-01
  5.442492580E-01  7.443082909E-01
   p   1
  1.687144782E-01  1.000000000E+00
   d   1
  8.000000000E-01  1.000000000E+00
 
   8
   s   6
  3.047524880E+03  1.834737132E-03
  4.573695180E+02  1.403732281E-02
  1.039486850E+02  6.884262227E-02
  2.921015530E+01  2.321844432E-01
  9.286662960E+00  4.679413484E-01
  3.163926960E+00  3.623119853E-01
   s   3
  7.868272350E+00 -1.193324198E-01
  1.881288540E+00 -1.608541517E-01
  5.442492580E-01  1.143456438E+00
   s   1
  1.687144782E-01  1.000000000E+00
   p   3
  7.868272350E+00  6.899906659E-02
  1.881288540E+00  3.164239610E-01
  5.442492580E-01  7.443082909E-01
   p   1
  1.687144782E-01  1.000000000E+00
   d   1
  8.000000000E-01  1.000000000E+00
 
   9
   s   3
  1.873113696E+01  3.349460434E-02
  2.825394365E+00  2.347269535E-01
  6.401216923E-01  8.137573261E-01
   s   1
  1.612777588E-01  1.000000000E+00
 
  10
   s   3
  1.873113696E+01  3.349460434E-02
  2.825394365E+00  2.347269535E-01
  6.401216923E-01  8.137573261E-01
   s   1
  1.612777588E-01  1.000000000E+00
 
[MO]
Sym=     1a1 
Ene=   -11.2350
Spin= Alpha
Occup=    2.00000
   1         0.69346883
   2         0.01922038
   3        -0.00634095
   4         0.00058437
   5        -0.00007219
   6         0.00000000
   7        -0.00020051
   8         0.00042500
   9         0.00000000
  10        -0.00200815
  11        -0.00111283
  12        -0.00182753
  13        -0.00011065
  14         0.00000000
  15         0.00000000
  16         0.69346883
  17         0.01922038
  18        -0.00634095
  19        -0.00058437
  20        -0.00007219
  21         0.00000000
  22         0.00020051
  23         0.00042500
  24         0.00000000
  25        -0.00200815
  26        -0.00111283
  27        -0.00182753
  28         0.00011065
  29         0.00000000
  30         0.00000000
  31         0.05874648
  32         0.00140611
  33         0.00246629
  34         0.00022258
  35        -0.00006182
  36         0.00000000
  37        -0.00037624
  38         0.00098988
  39         0.00000000
  40        -0.00036235
  41        -0.00021183
  42        -0.00026650
  43        -0.00000866
  44         0.00000000
  45         0.00000000
  46         0.05874648
  47         0.00140611
  48         0.00246629
  49        -0.00022258
  50        -0.00006182
  51         0.00000000
  52         0.00037624
  53         0.00098988
  54         0.00000000
  55        -0.00036235
  56        -0.00021183
  57        -0.00026650
  58         0.00000866
  59         0.00000000
  60         0.00000000
  61        -0.00019715
  62         0.00142029
  63        -0.00019715
  64         0.00142029
  65         0.10571187
  66         0.00281154
  67        -0.00064711
  68         0.00006505
  69        -0.00000849
  70         0.00000000
  71        -0.00004866
  72         0.00019913
  73         0.00000000
  74        -0.00028365
  75        -0.00013065
  76        -0.00032140
  77         0.00000416
  78         0.00000000
  79         0.00000000
  80         0.10571187
  81         0.00281154
  82        -0.00064711
  83        -0.00006505
  84        -0.00000849
  85         0.00000000
  86         0.00004866
  87         0.00019913
  88         0.00000000
  89        -0.00028365
  90        -0.00013065
  91        -0.00032140
  92        -0.00000416
  93         0.00000000
  94         0.00000000
  95        -0.00004341
  96         0.00034308
  97        -0.00004341
  98         0.00034308
Sym=     2a1 
Ene=   -11.2340
Spin= Alpha
Occup=    2.00000
   1        -0.10833196
   2        -0.00314507
   3         0.00118660
   4        -0.00003423
   5         0.00002898
   6         0.00000000
   7         0.00009378
   8        -0.00028419
   9         0.00000000
  10         0.00030862
  11         0.00028497
  12         0.00023565
  13         0.00000060
  14         0.00000000
  15         0.00000000
  16        -0.10833196
  17        -0.00314507
  18         0.00118660
  19         0.00003423
  20         0.00002898
  21         0.00000000
  22        -0.00009378
  23        -0.00028419
  24         0.00000000
  25         0.00030862
  26         0.00028497
  27         0.00023565
  28        -0.00000060
  29         0.00000000
  30         0.00000000
  31         0.02711120
  32         0.00056408
  33         0.00166040
  34         0.00003980
  35         0.00015998
  36         0.00000000
  37        -0.00039764
  38        -0.00117862
  39         0.00000000
  40        -0.00019215
  41        -0.00029943
  42        -0.00014042
  43        -0.00000953
  44         0.00000000
  45         0.00000000
  46         0.02711120
  47         0.00056408
  48         0.00166040
  49        -0.00003980
  50         0.00015998
  51         0.00000000
  52         0.00039764
  53        -0.00117862
  54         0.00000000
  55        -0.00019215
  56        -0.00029943
  57        -0.00014042
  58         0.00000953
  59         0.00000000
  60         0.00000000
  61         0.00002791
  62        -0.00007401
  63         0.00002791
  64        -0.00007401
  65         0.69488135
  66         0.01957695
  67        -0.00608710
  68        -0.00003463
  69         0.00015130
  70         0.00000000
  71        -0.00064384
  72        -0.00054610
  73         0.00000000
  74        -0.00167622
  75        -0.00138614
  76        -0.00180698
  77         0.00006218
  78         0.00000000
  79         0.00000000
  80         0.69488135
  81         0.01957695
  82        -0.00608710
  83         0.00003463
  84         0.00015130
  85         0.00000000
  86         0.00064384
  87        -0.00054610
  88         0.00000000
  89        -0.00167622
  90        -0.00138614
  91        -0.00180698
  92        -0.00006218
  93         0.00000000
  94         0.00000000
  95        -0.00019143
  96         0.00122321
  97        -0.00019143
  98         0.00122321
Sym=     3a1 
Ene=   -11.2210
Spin= Alpha
Occup=    2.00000
   1        -0.05473017
   2        -0.00166964
   3         0.00470833
   4        -0.00079946
   5         0.00021721
   6         0.00000000
   7        -0.00020223
   8        -0.00231827
   9         0.00000000
  10        -0.00004944
  11        -0.00005589
  12         0.00001851
  13         0.00013761
  14         0.00000000
  15         0.00000000
  16        -0.05473017
  17        -0.00166964
  18         0.00470833
  19         0.00079946
  20         0.00021721
  21         0.00000000
  22         0.00020223
  23        -0.00231827
  24         0.00000000
  25        -0.00004944
  26        -0.00005589
  27         0.00001851
  28        -0.00013761
  29         0.00000000
  30         0.00000000
  31         0.70117500
  32         0.01955286
  33        -0.01145228
  34        -0.00109552
  35        -0.00000679
  36         0.00000000
  37         0.00260837
  38        -0.00027710
  39         0.00000000
  40        -0.00172342
  41        -0.00082824
  42        -0.00178140
  43        -0.00001174
  44         0.00000000
  45         0.00000000
  46         0.70117500
  47         0.01955286
  48        -0.01145228
  49         0.00109552
  50        -0.00000679
  51         0.00000000
  52        -0.00260837
  53        -0.00027710
  54         0.00000000
  55        -0.00172342
  56        -0.00082824
  57        -0.00178140
  58         0.00001174
  59         0.00000000
  60         0.00000000
  61        -0.00004742
  62         0.00034148
  63        -0.00004742
  64         0.00034148
  65        -0.03629032
  66        -0.00106891
  67         0.00378809
  68        -0.00057752
  69        -0.00024300
  70         0.00000000
  71        -0.00014652
  72         0.00191827
  73         0.00000000
  74        -0.00012699
  75        -0.00019516
  76        -0.00004650
  77        -0.00020200
  78         0.00000000
  79         0.00000000
  80        -0.03629032
  81        -0.00106891
  82         0.00378809
  83         0.00057752
  84        -0.00024300
  85         0.00000000
  86         0.00014652
  87         0.00191827
  88         0.00000000
  89        -0.00012699
  90        -0.00019516
  91        -0.00004650
  92         0.00020200
  93         0.00000000
  94         0.00000000
  95        -0.00001582
  96         0.00035334
  97        -0.00001582
  98         0.00035334
Sym=     4a1 
Ene=    -1.1127
Spin= Alpha
Occup=    2.00000
   1        -0.08691720
   2         0.16191771
   3         0.10339498
   4         0.04164266
   5        -0.07804898
   6         0.00000000
   7         0.02009520
   8        -0.00796669
   9         0.00000000
  10         0.00201520
  11         0.01176525
  12        -0.00775182
  13        -0.00270100
  14         0.00000000
  15         0.00000000
  16        -0.08691720
  17         0.16191771
  18         0.10339498
  19        -0.04164266
  20        -0.07804898
  21         0.00000000
  22        -0.02009520
  23        -0.00796669
  24         0.00000000
  25         0.00201520
  26         0.01176525
  27        -0.00775182
  28         0.00270100
  29         0.00000000
  30         0.00000000
  31        -0.11799174
  32         0.22560126
  33         0.14211266
  34        -0.06542963
  35         0.01339966
  36         0.00000000
  37        -0.00912692
  38        -0.00371093
  39         0.00000000
  40        -0.00383229
  41         0.01285991
  42        -0.00894750
  43        -0.00046708
  44         0.00000000
  45         0.00000000
  46        -0.11799174
  47         0.22560126
  48         0.14211266
  49         0.06542963
  50         0.01339966
  51         0.00000000
  52         0.00912692
  53        -0.00371093
  54         0.00000000
  55        -0.00383229
  56         0.01285991
  57        -0.00894750
  58         0.00046708
  59         0.00000000
  60         0.00000000
  61         0.03924168
  62         0.01020486
  63         0.03924168
  64         0.01020486
  65        -0.07044973
  66         0.13192363
  67         0.07556084
  68         0.05206240
  69         0.07089101
  70         0.00000000
  71         0.02344419
  72         0.00897225
  73         0.00000000
  74         0.00191049
  75         0.01078429
  76        -0.00670992
  77         0.00269077
  78         0.00000000
  79         0.00000000
  80        -0.07044973
  81         0.13192363
  82         0.07556084
  83        -0.05206240
  84         0.07089101
  85         0.00000000
  86        -0.02344419
  87         0.00897225
  88         0.00000000
  89         0.00191049
  90         0.01078429
  91        -0.00670992
  92        -0.00269077
  93         0.00000000
  94         0.00000000
  95         0.03452236
  96         0.01152854
  97         0.03452236
  98         0.01152854
Sym=     5a1 
Ene=    -0.9259
Spin= Alpha
Occup=    2.00000
   1         0.09113874
   2        -0.17200543
   3        -0.14807935
   4        -0.07286319
   5        -0.00074671
   6         0.00000000
   7        -0.04187908
   8        -0.01118012
   9         0.00000000
  10        -0.00419778
  11        -0.01115771
  12         0.00767475
  13         0.00106552
  14         0.00000000
  15         0.00000000
  16         0.09113874
  17        -0.17200543
  18        -0.14807935
  19         0.07286319
  20        -0.00074671
  21         0.00000000
  22         0.04187908
  23        -0.01118012
  24         0.00000000
  25        -0.00419778
  26        -0.01115771
  27         0.00767475
  28        -0.00106552
  29         0.00000000
  30         0.00000000
  31        -0.00428648
  32         0.00942048
  33         0.00946346
  34        -0.00889989
  35        -0.19994320
  36         0.00000000
  37        -0.00434881
  38        -0.02233050
  39         0.00000000
  40         0.00077654
  41         0.00191956
  42        -0.00071786
  43         0.00921217
  44         0.00000000
  45         0.00000000
  46        -0.00428648
  47         0.00942048
  48         0.00946346
  49         0.00889989
  50        -0.19994320
  51         0.00000000
  52         0.00434881
  53        -0.02233050
  54         0.00000000
  55         0.00077654
  56         0.00191956
  57        -0.00071786
  58        -0.00921217
  59         0.00000000
  60         0.00000000
  61        -0.08710057
  62        -0.03337768
  63        -0.08710057
  64        -0.03337768
  65        -0.09775499
  66         0.18496063
  67         0.15647797
  68         0.09352163
  69         0.00322585
  70         0.00000000
  71         0.05629985
  72        -0.00917345
  73         0.00000000
  74         0.00489623
  75         0.01118796
  76        -0.00833968
  77        -0.00047381
  78         0.00000000
  79         0.00000000
  80        -0.09775499
  81         0.18496063
  82         0.15647797
  83        -0.09352163
  84         0.00322585
  85         0.00000000
  86        -0.05629985
  87        -0.00917345
  88         0.00000000
  89         0.00489623
  90         0.01118796
  91        -0.00833968
  92         0.00047381
  93         0.00000000
  94         0.00000000
  95         0.09734162
  96         0.03988995
  97         0.09734162
  98         0.03988995
Sym=     6a1 
Ene=    -0.7537
Spin= Alpha
Occup=    2.00000
   1        -0.04111941
   2         0.07970728
   3         0.07999598
   4         0.03231511
   5         0.20235258
   6         0.00000000
   7         0.02342235
   8         0.08280267
   9         0.00000000
  10         0.00339318
  11         0.00868011
  12        -0.00312817
  13         0.00576399
  14         0.00000000
  15         0.00000000
  16        -0.04111941
  17         0.07970728
  18         0.07999598
  19        -0.03231511
  20         0.20235258
  21         0.00000000
  22        -0.02342235
  23         0.08280267
  24         0.00000000
  25         0.00339318
  26         0.00868011
  27        -0.00312817
  28        -0.00576399
  29         0.00000000
  30         0.00000000
  31         0.04524473
  32        -0.08889475
  33        -0.03519774
  34         0.07821094
  35        -0.00661583
  36         0.00000000
  37         0.00788068
  38         0.00313513
  39         0.00000000
  40        -0.00625141
  41         0.00206952
  42         0.00390894
  43         0.00119045
  44         0.00000000
  45         0.00000000
  46         0.04524473
  47        -0.08889475
  48        -0.03519774
  49        -0.07821094
  50        -0.00661583
  51         0.00000000
  52        -0.00788068
  53         0.00313513
  54         0.00000000
  55        -0.00625141
  56         0.00206952
  57         0.00390894
  58        -0.00119045
  59         0.00000000
  60         0.00000000
  61         0.14398153
  62         0.07497097
  63         0.14398153
  64         0.07497097
  65        -0.03912885
  66         0.07497028
  67         0.08118878
  68         0.04193327
  69        -0.18962856
  70         0.00000000
  71         0.03168710
  72        -0.07554246
  73         0.00000000
  74         0.00359204
  75         0.00517163
  76        -0.00281495
  77        -0.00617025
  78         0.00000000
  79         0.00000000
  80        -0.03912885
  81         0.07497028
  82         0.08118878
  83        -0.04193327
  84        -0.18962856
  85         0.00000000
  86        -0.03168710
  87        -0.07554246
  88         0.00000000
  89         0.00359204
  90         0.00517163
  91        -0.00281495
  92         0.00617025
  93         0.00000000
  94         0.00000000
  95         0.13435790
  96         0.06902646
  97         0.13435790
  98         0.06902646
Sym=     7a1 
Ene=    -0.6329
Spin= Alpha
Occup=    2.00000
   1         0.01145976
   2        -0.02213996
   3        -0.03226693
   4        -0.01552464
   5         0.23379301
   6         0.00000000
   7         0.00011917
   8         0.09896616
   9         0.00000000
  10        -0.00177104
  11         0.00996019
  12         0.00022197
  13         0.00904099
  14         0.00000000
  15         0.00000000
  16         0.01145976
  17        -0.02213996
  18        -0.03226693
  19         0.01552464
  20         0.23379301
  21         0.00000000
  22        -0.00011917
  23         0.09896616
  24         0.00000000
  25        -0.00177104
  26         0.00996019
  27         0.00022197
  28        -0.00904099
  29         0.00000000
  30         0.00000000
  31         0.00114594
  32        -0.00107183
  33         0.01269109
  34        -0.00442604
  35        -0.23024190
  36         0.00000000
  37        -0.00305753
  38        -0.04318599
  39         0.00000000
  40         0.00121705
  41        -0.00026907
  42         0.00019349
  43         0.01899330
  44         0.00000000
  45         0.00000000
  46         0.00114594
  47        -0.00107183
  48         0.01269109
  49         0.00442604
  50        -0.23024190
  51         0.00000000
  52         0.00305753
  53        -0.04318599
  54         0.00000000
  55         0.00121705
  56        -0.00026907
  57         0.00019349
  58        -0.01899330
  59         0.00000000
  60         0.00000000
  61         0.11973233
  62         0.08546923
  63         0.11973233
  64         0.08546923
  65        -0.00908621
  66         0.02005688
  67         0.02553987
  68         0.00588277
  69         0.24576525
  70         0.00000000
  71        -0.00015206
  72         0.10277074
  73         0.00000000
  74         0.00143536
  75        -0.00855715
  76        -0.00016219
  77         0.00833563
  78         0.00000000
  79         0.00000000
  80        -0.00908621
  81         0.02005688
  82         0.02553987
  83        -0.00588277
  84         0.24576525
  85         0.00000000
  86         0.00015206
  87         0.10277074
  88         0.00000000
  89         0.00143536
  90        -0.00855715
  91        -0.00016219
  92        -0.00833563
  93         0.00000000
  94         0.00000000
  95        -0.12348476
  96        -0.08688062
  97        -0.12348476
  98        -0.08688062
Sym=     8a1 
Ene=    -0.6927
Spin= Alpha
Occup=    1.97725
   1         0.00316967
   2        -0.00775186
   3        -0.00259458
   4         0.01394937
   5        -0.00670471
   6         0.00000000
   7         0.00061195
   8        -0.00452618
   9         0.00000000
  10        -0.00070374
  11        -0.00055058
  12         0.00085800
  13        -0.00141259
  14         0.00000000
  15         0.00000000
  16         0.00316967
  17        -0.00775186
  18        -0.00259458
  19        -0.01394937
  20        -0.00670471
  21         0.00000000
  22        -0.00061195
  23        -0.00452618
  24         0.00000000
  25        -0.00070374
  26        -0.00055058
  27         0.00085800
  28         0.00141259
  29         0.00000000
  30         0.00000000
  31        -0.03823497
  32         0.08328454
  33         0.09018377
  34         0.05193793
  35        -0.05864946
  36         0.00000000
  37         0.01604361
  38        -0.02023653
  39         0.00000000
  40        -0.00932097
  41         0.00733132
  42        -0.00011319
  43        -0.00523667
  44         0.00000000
  45         0.00000000
  46        -0.03823497
  47         0.08328454
  48         0.09018377
  49        -0.05193793
  50        -0.05864946
  51         0.00000000
  52        -0.01604361
  53        -0.02023653
  54         0.00000000
  55        -0.00932097
  56         0.00733132
  57        -0.00011319
  58         0.00523667
  59         0.00000000
  60         0.00000000
  61        -0.00537669
  62        -0.00283620
  63        -0.00537669
  64        -0.00283620
  65         0.08347650
  66        -0.17027360
  67        -0.11474779
  68         0.38244753
  69        -0.00148647
  70         0.00000000
  71         0.13979328
  72        -0.00899119
  73         0.00000000
  74        -0.01727225
  75         0.01412196
  76         0.00537786
  77         0.00442445
  78         0.00000000
  79         0.00000000
  80         0.08347650
  81        -0.17027360
  82        -0.11474779
  83        -0.38244753
  84        -0.00148647
  85         0.00000000
  86        -0.13979328
  87        -0.00899119
  88         0.00000000
  89        -0.01727225
  90         0.01412196
  91         0.00537786
  92        -0.00442445
  93         0.00000000
  94         0.00000000
  95         0.04539728
  96         0.06017345
  97         0.04539728
  98         0.06017345
Sym=     9a1 
Ene=     0.0020
Spin= Alpha
Occup=    1.96423
   1         0.06393556
   2        -0.13138570
   3        -0.11810535
   4         0.36956657
   5         0.00878083
   6         0.00000000
   7         0.16836680
   8         0.01651148
   9         0.00000000
  10        -0.01899881
  11         0.00978956
  12         0.00403964
  13        -0.00517661
  14         0.00000000
  15         0.00000000
  16         0.06393556
  17        -0.13138570
  18        -0.11810535
  19        -0.36956657
  20         0.00878083
  21         0.00000000
  22        -0.16836680
  23         0.01651148
  24         0.00000000
  25        -0.01899881
  26         0.00978956
  27         0.00403964
  28         0.00517661
  29         0.00000000
  30         0.00000000
  31        -0.03957612
  32         0.08536489
  33         0.09713006
  34         0.07847682
  35         0.06282606
  36         0.00000000
  37         0.02916053
  38         0.01224078
  39         0.00000000
  40        -0.00910318
  41         0.00833616
  42        -0.00008544
  43         0.00811382
  44         0.00000000
  45         0.00000000
  46        -0.03957612
  47         0.08536489
  48         0.09713006
  49        -0.07847682
  50         0.06282606
  51         0.00000000
  52        -0.02916053
  53         0.01224078
  54         0.00000000
  55        -0.00910318
  56         0.00833616
  57        -0.00008544
  58        -0.00811382
  59         0.00000000
  60         0.00000000
  61         0.04652585
  62         0.06004933
  63         0.04652585
  64         0.06004933
  65        -0.01295816
  66         0.02698726
  67         0.02004959
  68        -0.05490048
  69         0.01355827
  70         0.00000000
  71        -0.02768428
  72         0.00742481
  73         0.00000000
  74         0.00357188
  75        -0.00423621
  76         0.00000255
  77         0.00192626
  78         0.00000000
  79         0.00000000
  80        -0.01295816
  81         0.02698726
  82         0.02004959
  83         0.05490048
  84         0.01355827
  85         0.00000000
  86         0.02768428
  87         0.00742481
  88         0.00000000
  89         0.00357188
  90        -0.00423621
  91         0.00000255
  92        -0.00192626
  93         0.00000000
  94         0.00000000
  95        -0.01843675
  96        -0.02225998
  97        -0.01843675
  98        -0.02225998
Sym=    10a1 
Ene=    -0.1558
Spin= Alpha
Occup=    0.48254
   1        -0.00131026
   2         0.00315648
   3        -0.04413352
   4         0.17702318
   5        -0.03976751
   6         0.00000000
   7         0.13553186
   8         0.03559855
   9         0.00000000
  10        -0.01795100
  11         0.02042092
  12        -0.00096920
  13         0.00862494
  14         0.00000000
  15         0.00000000
  16        -0.00131026
  17         0.00315648
  18        -0.04413352
  19        -0.17702318
  20        -0.03976751
  21         0.00000000
  22        -0.13553186
  23         0.03559855
  24         0.00000000
  25        -0.01795100
  26         0.02042092
  27        -0.00096920
  28        -0.00862494
  29         0.00000000
  30         0.00000000
  31         0.04701458
  32        -0.11112987
  33        -0.18067085
  34        -0.41765651
  35         0.02316271
  36         0.00000000
  37        -0.32236067
  38         0.00980581
  39         0.00000000
  40        -0.01812419
  41         0.01985967
  42         0.00112486
  43         0.00186387
  44         0.00000000
  45         0.00000000
  46         0.04701458
  47        -0.11112987
  48        -0.18067085
  49         0.41765651
  50         0.02316271
  51         0.00000000
  52         0.32236067
  53         0.00980581
  54         0.00000000
  55        -0.01812419
  56         0.01985967
  57         0.00112486
  58        -0.00186387
  59         0.00000000
  60         0.00000000
  61         0.05678812
  62         0.05246096
  63         0.05678812
  64         0.05246096
  65        -0.00274982
  66         0.00623116
  67        -0.01480237
  68         0.14449620
  69         0.04367783
  70         0.00000000
  71         0.10565605
  72        -0.02278716
  73         0.00000000
  74        -0.01323275
  75         0.01786458
  76        -0.00071915
  77        -0.00830841
  78         0.00000000
  79         0.00000000
  80        -0.00274982
  81         0.00623116
  82        -0.01480237
  83        -0.14449620
  84         0.04367783
  85         0.00000000
  86        -0.10565605
  87        -0.02278716
  88         0.00000000
  89        -0.01323275
  90         0.01786458
  91        -0.00071915
  92         0.00830841
  93         0.00000000
  94         0.00000000
  95         0.04928547
  96         0.04328293
  97         0.04928547
  98         0.04328293
Sym=    11a1 
Ene=     0.2585
Spin= Alpha
Occup=    0.00000
   1         0.05544661
   2        -0.08343798
   3        -0.68870125
   4        -0.08150121
   5        -0.09001830
   6         0.00000000
   7        -0.29182509
   8        -0.53968834
   9         0.00000000
  10        -0.00591802
  11         0.01115891
  12        -0.00026722
  13         0.00126292
  14         0.00000000
  15         0.00000000
  16         0.05544661
  17        -0.08343798
  18        -0.68870125
  19         0.08150121
  20        -0.09001830
  21         0.00000000
  22         0.29182509