[Molden Format]
[N_Atoms]
                   10
[Atoms] (AU)
C1          1      6           1.50460820      2.23558875      0.00000000
C1          2      6          -1.50460820      2.23558875      0.00000000
C2          3      6           2.53908209      0.01871122      0.00000000
C2          4      6          -2.53908209      0.01871122      0.00000000
H3          5      1          -2.22480493      4.12473475      0.00000000
H3          6      1           2.22480493      4.12473475      0.00000000
C4          7      6           1.35186649     -2.25819770      0.00000000
C4          8      6          -1.35186649     -2.25819770      0.00000000
H5          9      1           2.24586960     -4.07789859      0.00000000
H5         10      1          -2.24586960     -4.07789859      0.00000000
[Charge] (Mulliken)
 -0.57000136119372691     
 -0.57000136119372691     
   9.3289668202723774E-002
   9.3289668202723774E-002
  0.51120221872296612     
  0.51120221872296612     
 -0.51584550330963630     
 -0.51584550330963630     
  0.48135497757573842     
  0.48135497757573842     
[GTO] (AU)
   1
   s   6
  3.047524880E+03  1.834737132E-03
  4.573695180E+02  1.403732281E-02
  1.039486850E+02  6.884262227E-02
  2.921015530E+01  2.321844432E-01
  9.286662960E+00  4.679413484E-01
  3.163926960E+00  3.623119853E-01
   s   3
  7.868272350E+00 -1.193324198E-01
  1.881288540E+00 -1.608541517E-01
  5.442492580E-01  1.143456438E+00
   s   1
  1.687144782E-01  1.000000000E+00
   p   3
  7.868272350E+00  6.899906659E-02
  1.881288540E+00  3.164239610E-01
  5.442492580E-01  7.443082909E-01
   p   1
  1.687144782E-01  1.000000000E+00
   d   1
  8.000000000E-01  1.000000000E+00
 
   2
   s   6
  3.047524880E+03  1.834737132E-03
  4.573695180E+02  1.403732281E-02
  1.039486850E+02  6.884262227E-02
  2.921015530E+01  2.321844432E-01
  9.286662960E+00  4.679413484E-01
  3.163926960E+00  3.623119853E-01
   s   3
  7.868272350E+00 -1.193324198E-01
  1.881288540E+00 -1.608541517E-01
  5.442492580E-01  1.143456438E+00
   s   1
  1.687144782E-01  1.000000000E+00
   p   3
  7.868272350E+00  6.899906659E-02
  1.881288540E+00  3.164239610E-01
  5.442492580E-01  7.443082909E-01
   p   1
  1.687144782E-01  1.000000000E+00
   d   1
  8.000000000E-01  1.000000000E+00
 
   3
   s   6
  3.047524880E+03  1.834737132E-03
  4.573695180E+02  1.403732281E-02
  1.039486850E+02  6.884262227E-02
  2.921015530E+01  2.321844432E-01
  9.286662960E+00  4.679413484E-01
  3.163926960E+00  3.623119853E-01
   s   3
  7.868272350E+00 -1.193324198E-01
  1.881288540E+00 -1.608541517E-01
  5.442492580E-01  1.143456438E+00
   s   1
  1.687144782E-01  1.000000000E+00
   p   3
  7.868272350E+00  6.899906659E-02
  1.881288540E+00  3.164239610E-01
  5.442492580E-01  7.443082909E-01
   p   1
  1.687144782E-01  1.000000000E+00
   d   1
  8.000000000E-01  1.000000000E+00
 
   4
   s   6
  3.047524880E+03  1.834737132E-03
  4.573695180E+02  1.403732281E-02
  1.039486850E+02  6.884262227E-02
  2.921015530E+01  2.321844432E-01
  9.286662960E+00  4.679413484E-01
  3.163926960E+00  3.623119853E-01
   s   3
  7.868272350E+00 -1.193324198E-01
  1.881288540E+00 -1.608541517E-01
  5.442492580E-01  1.143456438E+00
   s   1
  1.687144782E-01  1.000000000E+00
   p   3
  7.868272350E+00  6.899906659E-02
  1.881288540E+00  3.164239610E-01
  5.442492580E-01  7.443082909E-01
   p   1
  1.687144782E-01  1.000000000E+00
   d   1
  8.000000000E-01  1.000000000E+00
 
   5
   s   3
  1.873113696E+01  3.349460434E-02
  2.825394365E+00  2.347269535E-01
  6.401216923E-01  8.137573261E-01
   s   1
  1.612777588E-01  1.000000000E+00
 
   6
   s   3
  1.873113696E+01  3.349460434E-02
  2.825394365E+00  2.347269535E-01
  6.401216923E-01  8.137573261E-01
   s   1
  1.612777588E-01  1.000000000E+00
 
   7
   s   6
  3.047524880E+03  1.834737132E-03
  4.573695180E+02  1.403732281E-02
  1.039486850E+02  6.884262227E-02
  2.921015530E+01  2.321844432E-01
  9.286662960E+00  4.679413484E-01
  3.163926960E+00  3.623119853E-01
   s   3
  7.868272350E+00 -1.193324198E-01
  1.881288540E+00 -1.608541517E-01
  5.442492580E-01  1.143456438E+00
   s   1
  1.687144782E-01  1.000000000E+00
   p   3
  7.868272350E+00  6.899906659E-02
  1.881288540E+00  3.164239610E-01
  5.442492580E-01  7.443082909E-01
   p   1
  1.687144782E-01  1.000000000E+00
   d   1
  8.000000000E-01  1.000000000E+00
 
   8
   s   6
  3.047524880E+03  1.834737132E-03
  4.573695180E+02  1.403732281E-02
  1.039486850E+02  6.884262227E-02
  2.921015530E+01  2.321844432E-01
  9.286662960E+00  4.679413484E-01
  3.163926960E+00  3.623119853E-01
   s   3
  7.868272350E+00 -1.193324198E-01
  1.881288540E+00 -1.608541517E-01
  5.442492580E-01  1.143456438E+00
   s   1
  1.687144782E-01  1.000000000E+00
   p   3
  7.868272350E+00  6.899906659E-02
  1.881288540E+00  3.164239610E-01
  5.442492580E-01  7.443082909E-01
   p   1
  1.687144782E-01  1.000000000E+00
   d   1
  8.000000000E-01  1.000000000E+00
 
   9
   s   3
  1.873113696E+01  3.349460434E-02
  2.825394365E+00  2.347269535E-01
  6.401216923E-01  8.137573261E-01
   s   1
  1.612777588E-01  1.000000000E+00
 
  10
   s   3
  1.873113696E+01  3.349460434E-02
  2.825394365E+00  2.347269535E-01
  6.401216923E-01  8.137573261E-01
   s   1
  1.612777588E-01  1.000000000E+00
 
[MO]
Sym=     1a1 
Ene=   -11.2660
Spin= Alpha
Occup=    2.00000
   1         0.70241745
   2         0.01925140
   3        -0.00647017
   4        -0.00004647
   5         0.00005099
   6         0.00000000
   7        -0.00047779
   8         0.00046095
   9         0.00000000
  10        -0.00192032
  11        -0.00101274
  12        -0.00171849
  13        -0.00006939
  14         0.00000000
  15         0.00000000
  16         0.70241745
  17         0.01925140
  18        -0.00647017
  19         0.00004647
  20         0.00005099
  21         0.00000000
  22         0.00047779
  23         0.00046095
  24         0.00000000
  25        -0.00192032
  26        -0.00101274
  27        -0.00171849
  28         0.00006939
  29         0.00000000
  30         0.00000000
  31         0.03172717
  32         0.00046039
  33         0.00255794
  34         0.00012519
  35        -0.00012491
  36         0.00000000
  37        -0.00049107
  38         0.00117131
  39         0.00000000
  40        -0.00023382
  41        -0.00009959
  42        -0.00018362
  43        -0.00002895
  44         0.00000000
  45         0.00000000
  46         0.03172717
  47         0.00046039
  48         0.00255794
  49        -0.00012519
  50        -0.00012491
  51         0.00000000
  52         0.00049107
  53         0.00117131
  54         0.00000000
  55        -0.00023382
  56        -0.00009959
  57        -0.00018362
  58         0.00002895
  59         0.00000000
  60         0.00000000
  61        -0.00029067
  62         0.00136012
  63        -0.00029067
  64         0.00136012
  65         0.03365612
  66         0.00079964
  67        -0.00010568
  68        -0.00000321
  69        -0.00004638
  70         0.00000000
  71         0.00003616
  72         0.00015110
  73         0.00000000
  74        -0.00009939
  75         0.00002060
  76        -0.00012268
  77        -0.00000827
  78         0.00000000
  79         0.00000000
  80         0.03365612
  81         0.00079964
  82        -0.00010568
  83         0.00000321
  84        -0.00004638
  85         0.00000000
  86        -0.00003616
  87         0.00015110
  88         0.00000000
  89        -0.00009939
  90         0.00002060
  91        -0.00012268
  92         0.00000827
  93         0.00000000
  94         0.00000000
  95        -0.00002048
  96         0.00018949
  97        -0.00002048
  98         0.00018949
Sym=     2a1 
Ene=   -11.2660
Spin= Alpha
Occup=    2.00000
   1        -0.03461015
   2        -0.00106994
   3         0.00043085
   4         0.00002385
   5         0.00001166
   6         0.00000000
   7         0.00007641
   8        -0.00017323
   9         0.00000000
  10         0.00009517
  11         0.00015764
  12         0.00003936
  13        -0.00001144
  14         0.00000000
  15         0.00000000
  16        -0.03461015
  17        -0.00106994
  18         0.00043085
  19        -0.00002385
  20         0.00001166
  21         0.00000000
  22        -0.00007641
  23        -0.00017323
  24         0.00000000
  25         0.00009517
  26         0.00015764
  27         0.00003936
  28         0.00001144
  29         0.00000000
  30         0.00000000
  31         0.01963914
  32         0.00032884
  33         0.00218902
  34         0.00010653
  35         0.00011892
  36         0.00000000
  37        -0.00049539
  38        -0.00108798
  39         0.00000000
  40        -0.00018753
  41        -0.00027405
  42        -0.00012930
  43        -0.00001175
  44         0.00000000
  45         0.00000000
  46         0.01963914
  47         0.00032884
  48         0.00218902
  49        -0.00010653
  50         0.00011892
  51         0.00000000
  52         0.00049539
  53        -0.00108798
  54         0.00000000
  55        -0.00018753
  56        -0.00027405
  57        -0.00012930
  58         0.00001175
  59         0.00000000
  60         0.00000000
  61         0.00000279
  62         0.00005067
  63         0.00000279
  64         0.00005067
  65         0.70276483
  66         0.01929723
  67        -0.00624184
  68         0.00007476
  69         0.00010199
  70         0.00000000
  71        -0.00059001
  72        -0.00054528
  73         0.00000000
  74        -0.00160453
  75        -0.00124026
  76        -0.00171294
  77         0.00004496
  78         0.00000000
  79         0.00000000
  80         0.70276483
  81         0.01929723
  82        -0.00624184
  83        -0.00007476
  84         0.00010199
  85         0.00000000
  86         0.00059001
  87        -0.00054528
  88         0.00000000
  89        -0.00160453
  90        -0.00124026
  91        -0.00171294
  92        -0.00004496
  93         0.00000000
  94         0.00000000
  95        -0.00019046
  96         0.00127886
  97        -0.00019046
  98         0.00127886
Sym=     3a1 
Ene=   -11.2430
Spin= Alpha
Occup=    2.00000
   1        -0.03132814
   2        -0.00130192
   3         0.00427858
   4        -0.00008579
   5         0.00023197
   6         0.00000000
   7         0.00008152
   8        -0.00231612
   9         0.00000000
  10        -0.00014878
  11        -0.00009199
  12        -0.00003825
  13         0.00012789
  14         0.00000000
  15         0.00000000
  16        -0.03132814
  17        -0.00130192
  18         0.00427858
  19         0.00008579
  20         0.00023197
  21         0.00000000
  22        -0.00008152
  23        -0.00231612
  24         0.00000000
  25        -0.00014878
  26        -0.00009199
  27        -0.00003825
  28        -0.00012789
  29         0.00000000
  30         0.00000000
  31         0.70308895
  32         0.01939703
  33        -0.01096550
  34        -0.00074674
  35        -0.00004269
  36         0.00000000
  37         0.00284151
  38        -0.00023056
  39         0.00000000
  40        -0.00160315
  41        -0.00059340
  42        -0.00163637
  43         0.00001142
  44         0.00000000
  45         0.00000000
  46         0.70308895
  47         0.01939703
  48        -0.01096550
  49         0.00074674
  50        -0.00004269
  51         0.00000000
  52        -0.00284151
  53        -0.00023056
  54         0.00000000
  55        -0.00160315
  56        -0.00059340
  57        -0.00163637
  58        -0.00001142
  59         0.00000000
  60         0.00000000
  61         0.00000847
  62         0.00049611
  63         0.00000847
  64         0.00049611
  65        -0.02159370
  66        -0.00090775
  67         0.00357793
  68        -0.00008393
  69        -0.00025198
  70         0.00000000
  71         0.00000874
  72         0.00193638
  73         0.00000000
  74        -0.00018796
  75        -0.00024887
  76        -0.00008190
  77        -0.00020634
  78         0.00000000
  79         0.00000000
  80        -0.02159370
  81        -0.00090775
  82         0.00357793
  83         0.00008393
  84        -0.00025198
  85         0.00000000
  86        -0.00000874
  87         0.00193638
  88         0.00000000
  89        -0.00018796
  90        -0.00024887
  91        -0.00008190
  92         0.00020634
  93         0.00000000
  94         0.00000000
  95         0.00000091
  96         0.00042272
  97         0.00000091
  98         0.00042272
Sym=     4a1 
Ene=    -1.1617
Spin= Alpha
Occup=    2.00000
   1        -0.08575075
   2         0.16266215
   3         0.10667836
   4        -0.01614074
   5        -0.06263040
   6         0.00000000
   7        -0.00671082
   8        -0.00580585
   9         0.00000000
  10         0.00443301
  11         0.00936815
  12        -0.00789655
  13        -0.00113241
  14         0.00000000
  15         0.00000000
  16        -0.08575075
  17         0.16266215
  18         0.10667836
  19         0.01614074
  20        -0.06263040
  21         0.00000000
  22         0.00671082
  23        -0.00580585
  24         0.00000000
  25         0.00443301
  26         0.00936815
  27        -0.00789655
  28         0.00113241
  29         0.00000000
  30         0.00000000
  31        -0.09600981
  32         0.18267873
  33         0.10024233
  34        -0.07294115
  35         0.00123339
  36         0.00000000
  37        -0.00776896
  38        -0.00200461
  39         0.00000000
  40        -0.00047448
  41         0.00878826
  42        -0.00874806
  43         0.00079433
  44         0.00000000
  45         0.00000000
  46        -0.09600981
  47         0.18267873
  48         0.10024233
  49         0.07294115
  50         0.00123339
  51         0.00000000
  52         0.00776896
  53        -0.00200461
  54         0.00000000
  55        -0.00047448
  56         0.00878826
  57        -0.00874806
  58        -0.00079433
  59         0.00000000
  60         0.00000000
  61         0.03213622
  62         0.00258138
  63         0.03213622
  64         0.00258138
  65        -0.09794297
  66         0.18807125
  67         0.11865637
  68        -0.03428084
  69         0.05642318
  70         0.00000000
  71        -0.00666717
  72         0.00575350
  73         0.00000000
  74         0.00713854
  75         0.00811286
  76        -0.00905023
  77         0.00100813
  78         0.00000000
  79         0.00000000
  80        -0.09794297
  81         0.18807125
  82         0.11865637
  83         0.03428084
  84         0.05642318
  85         0.00000000
  86         0.00666717
  87         0.00575350
  88         0.00000000
  89         0.00713854
  90         0.00811286
  91        -0.00905023
  92        -0.00100813
  93         0.00000000
  94         0.00000000
  95         0.03787388
  96         0.00345815
  97         0.03787388
  98         0.00345815
Sym=     5a1 
Ene=    -1.0185
Spin= Alpha
Occup=    2.00000
   1         0.10866011
   2        -0.20822248
   3        -0.17333293
   4         0.02272559
   5         0.00997928
   6         0.00000000
   7         0.00699690
   8        -0.00611134
   9         0.00000000
  10        -0.00861836
  11        -0.00926600
  12         0.00918168
  13         0.00029292
  14         0.00000000
  15         0.00000000
  16         0.10866011
  17        -0.20822248
  18        -0.17333293
  19        -0.02272559
  20         0.00997928
  21         0.00000000
  22        -0.00699690
  23        -0.00611134
  24         0.00000000
  25        -0.00861836
  26        -0.00926600
  27         0.00918168
  28        -0.00029292
  29         0.00000000
  30         0.00000000
  31         0.01557443
  32        -0.02939143
  33        -0.01804810
  34         0.00467470
  35        -0.13774562
  36         0.00000000
  37        -0.00160850
  38        -0.00871026
  39         0.00000000
  40         0.00142964
  41         0.00024277
  42         0.00075682
  43         0.01149826
  44         0.00000000
  45         0.00000000
  46         0.01557443
  47        -0.02939143
  48        -0.01804810
  49        -0.00467470
  50        -0.13774562
  51         0.00000000
  52         0.00160850
  53        -0.00871026
  54         0.00000000
  55         0.00142964
  56         0.00024277
  57         0.00075682
  58        -0.01149826
  59         0.00000000
  60         0.00000000
  61        -0.07048596
  62        -0.01376502
  63        -0.07048596
  64        -0.01376502
  65        -0.10872170
  66         0.21164343
  67         0.17215016
  68        -0.05641339
  69        -0.01623801
  70         0.00000000
  71        -0.00509106
  72        -0.01092012
  73         0.00000000
  74         0.01102942
  75         0.00373737
  76        -0.00881676
  77        -0.00217111
  78         0.00000000
  79         0.00000000
  80        -0.10872170
  81         0.21164343
  82         0.17215016
  83         0.05641339
  84        -0.01623801
  85         0.00000000
  86         0.00509106
  87        -0.01092012
  88         0.00000000
  89         0.01102942
  90         0.00373737
  91        -0.00881676
  92         0.00217111
  93         0.00000000
  94         0.00000000
  95         0.07106174
  96         0.01252118
  97         0.07106174
  98         0.01252118
Sym=     6a1 
Ene=    -0.7966
Spin= Alpha
Occup=    2.00000
   1        -0.04744466
   2         0.09499438
   3         0.08830046
   4        -0.05598073
   5         0.20285506
   6         0.00000000
   7        -0.01953753
   8         0.08152277
   9         0.00000000
  10         0.00701106
  11         0.00691022
  12        -0.00387720
  13         0.00674524
  14         0.00000000
  15         0.00000000
  16        -0.04744466
  17         0.09499438
  18         0.08830046
  19         0.05598073
  20         0.20285506
  21         0.00000000
  22         0.01953753
  23         0.08152277
  24         0.00000000
  25         0.00701106
  26         0.00691022
  27        -0.00387720
  28        -0.00674524
  29         0.00000000
  30         0.00000000
  31         0.08158728
  32        -0.16400545
  33        -0.09492119
  34         0.04005699
  35         0.00888244
  36         0.00000000
  37        -0.01199432
  38         0.00957617
  39         0.00000000
  40         0.00079255
  41        -0.00489722
  42         0.00534703
  43         0.00040812
  44         0.00000000
  45         0.00000000
  46         0.08158728
  47        -0.16400545
  48        -0.09492119
  49        -0.04005699
  50         0.00888244
  51         0.00000000
  52         0.01199432
  53         0.00957617
  54         0.00000000
  55         0.00079255
  56        -0.00489722
  57         0.00534703
  58        -0.00040812
  59         0.00000000
  60         0.00000000
  61         0.12659647
  62         0.05506785
  63         0.12659647
  64         0.05506785
  65        -0.03864123
  66         0.07740507
  67         0.07471699
  68        -0.07862038
  69        -0.18256047
  70         0.00000000
  71        -0.01754354
  72        -0.06779791
  73         0.00000000
  74         0.00700830
  75        -0.00021084
  76        -0.00270361
  77        -0.00753510
  78         0.00000000
  79         0.00000000
  80        -0.03864123
  81         0.07740507
  82         0.07471699
  83         0.07862038
  84        -0.18256047
  85         0.00000000
  86         0.01754354
  87        -0.06779791
  88         0.00000000
  89         0.00700830
  90        -0.00021084
  91        -0.00270361
  92         0.00753510
  93         0.00000000
  94         0.00000000
  95         0.09665706
  96         0.04107118
  97         0.09665706
  98         0.04107118
Sym=     7a1 
Ene=    -0.6547
Spin= Alpha
Occup=    2.00000
   1         0.01209439
   2        -0.02223697
   3        -0.03435808
   4        -0.09992113
   5         0.21636230
   6         0.00000000
   7        -0.04458193
   8         0.08804199
   9         0.00000000
  10         0.00140479
  11         0.00734334
  12         0.00055526
  13         0.00915111
  14         0.00000000
  15         0.00000000
  16         0.01209439
  17        -0.02223697
  18        -0.03435808
  19         0.09992113
  20         0.21636230
  21         0.00000000
  22         0.04458193
  23         0.08804199
  24         0.00000000
  25         0.00140479
  26         0.00734334
  27         0.00055526
  28        -0.00915111
  29         0.00000000
  30         0.00000000
  31         0.00804856
  32        -0.01489804
  33        -0.00409355
  34        -0.02619019
  35        -0.26217802
  36         0.00000000
  37        -0.01353605
  38        -0.04352120
  39         0.00000000
  40         0.00321000
  41        -0.00165330
  42         0.00001354
  43         0.01706996
  44         0.00000000
  45         0.00000000
  46         0.00804856
  47        -0.01489804
  48        -0.00409355
  49         0.02619019
  50        -0.26217802
  51         0.00000000
  52         0.01353605
  53        -0.04352120
  54         0.00000000
  55         0.00321000
  56        -0.00165330
  57         0.00001354
  58        -0.01706996
  59         0.00000000
  60         0.00000000
  61         0.08791239
  62         0.05946374
  63         0.08791239
  64         0.05946374
  65        -0.00953837
  66         0.02048409
  67         0.02705922
  68         0.04382175
  69         0.24689684
  70         0.00000000
  71         0.02038594
  72         0.09915740
  73         0.00000000
  74        -0.00000651
  75        -0.00667387
  76        -0.00049590
  77         0.00765347
  78         0.00000000
  79         0.00000000
  80        -0.00953837
  81         0.02048409
  82         0.02705922
  83        -0.04382175
  84         0.24689684
  85         0.00000000
  86        -0.02038594
  87         0.09915740
  88         0.00000000
  89        -0.00000651
  90        -0.00667387
  91        -0.00049590
  92        -0.00765347
  93         0.00000000
  94         0.00000000
  95        -0.10898407
  96        -0.07191660
  97        -0.10898407
  98        -0.07191660
Sym=     8a1 
Ene=    -0.6418
Spin= Alpha
Occup=    2.00000
   1         0.00919963
   2        -0.02088477
   3        -0.01291722
   4         0.14545919
   5         0.08400162
   6         0.00000000
   7         0.06285014
   8         0.03800983
   9         0.00000000
  10        -0.00564725
  11         0.00530480
  12         0.00060403
  13        -0.00220917
  14         0.00000000
  15         0.00000000
  16         0.00919963
  17        -0.02088477
  18        -0.01291722
  19        -0.14545919
  20         0.08400162
  21         0.00000000
  22        -0.06285014
  23         0.03800983
  24         0.00000000
  25        -0.00564725
  26         0.00530480
  27         0.00060403
  28         0.00220917
  29         0.00000000
  30         0.00000000
  31        -0.05765042
  32         0.11816639
  33         0.14380820
  34         0.11956041
  35        -0.07138979
  36         0.00000000
  37         0.05596382
  38        -0.01594326
  39         0.00000000
  40        -0.01552251
  41         0.01369672
  42        -0.00043273
  43         0.00224524
  44         0.00000000
  45         0.00000000
  46        -0.05765042
  47         0.11816639
  48         0.14380820
  49        -0.11956041
  50        -0.07138979
  51         0.00000000
  52        -0.05596382
  53        -0.01594326
  54         0.00000000
  55        -0.01552251
  56         0.01369672
  57        -0.00043273
  58        -0.00224524
  59         0.00000000
  60         0.00000000
  61         0.06574130
  62         0.04172992
  63         0.06574130
  64         0.04172992
  65         0.00864334
  66        -0.02213424
  67         0.00746891
  68         0.30187112
  69        -0.05202900
  70         0.00000000
  71         0.11993771
  72        -0.02934571
  73         0.00000000
  74        -0.00922132
  75         0.01216647
  76        -0.00013050
  77         0.00392402
  78         0.00000000
  79         0.00000000
  80         0.00864334
  81        -0.02213424
  82         0.00746891
  83        -0.30187112
  84        -0.05202900
  85         0.00000000
  86        -0.11993771
  87        -0.02934571
  88         0.00000000
  89        -0.00922132
  90         0.01216647
  91        -0.00013050
  92        -0.00392402
  93         0.00000000
  94         0.00000000
  95         0.09553191
  96         0.06023534
  97         0.09553191
  98         0.06023534
Sym=     9a1 
Ene=    -0.5423
Spin= Alpha
Occup=    2.00000
   1         0.01691523
   2        -0.03542779
   3        -0.04547522
   4         0.30701015
   5         0.07965093
   6         0.00000000
   7         0.15065097
   8         0.05043775
   9         0.00000000
  10        -0.01433730
  11         0.01299363
  12        -0.00012389
  13        -0.00293389
  14         0.00000000
  15         0.00000000
  16         0.01691523
  17        -0.03542779
  18        -0.04547522
  19        -0.30701015
  20         0.07965093
  21         0.00000000
  22        -0.15065097
  23         0.05043775
  24         0.00000000
  25        -0.01433730
  26         0.01299363
  27        -0.00012389
  28         0.00293389
  29         0.00000000
  30         0.00000000
  31        -0.01946710
  32         0.03957800
  33         0.05406131
  34         0.06282440
  35         0.09228815
  36         0.00000000
  37         0.03458820
  38         0.02590693
  39         0.00000000
  40        -0.00511948
  41         0.00389472
  42         0.00046975
  43         0.01154024
  44         0.00000000
  45         0.00000000
  46        -0.01946710
  47         0.03957800
  48         0.05406131
  49        -0.06282440
  50         0.09228815
  51         0.00000000
  52        -0.03458820
  53         0.02590693
  54         0.00000000
  55        -0.00511948
  56         0.00389472
  57         0.00046975
  58        -0.01154024
  59         0.00000000
  60         0.00000000
  61         0.10412857
  62         0.07782042
  63         0.10412857
  64         0.07782042
  65        -0.01310640
  66         0.02937468
  67         0.02747198
  68        -0.22345531
  69         0.06568628
  70         0.00000000
  71        -0.09734626
  72         0.03959242
  73         0.00000000
  74         0.01045982
  75        -0.01477273
  76         0.00058267
  77         0.00210224
  78         0.00000000
  79         0.00000000
  80        -0.01310640
  81         0.02937468
  82         0.02747198
  83         0.22345531
  84         0.06568628
  85         0.00000000
  86         0.09734626
  87         0.03959242
  88         0.00000000
  89         0.01045982
  90        -0.01477273
  91         0.00058267
  92        -0.00210224
  93         0.00000000
  94         0.00000000
  95        -0.09332572
  96        -0.07427323
  97        -0.09332572
  98        -0.07427323
Sym=    10a1 
Ene=    -0.0009
Spin= Alpha
Occup=    0.00000
   1         0.00724365
   2         0.00826534
   3        -0.18449964
   4         0.18503688
   5        -0.05479303
   6         0.00000000
   7         0.13640542
   8        -0.02252196
   9         0.00000000
  10        -0.02053644
  11         0.02045484
  12         0.00045160
  13         0.01735211
  14         0.00000000
  15         0.00000000
  16         0.00724365
  17         0.00826534
  18        -0.18449964
  19        -0.18503688
  20        -0.05479303
  21         0.00000000
  22        -0.13640542
  23        -0.02252196
  24         0.00000000
  25        -0.02053644
  26         0.02045484
  27         0.00045160
  28        -0.01735211
  29         0.00000000
  30         0.00000000
  31         0.03315225
  32        -0.04073401
  33        -0.19094676
  34        -0.31301958
  35         0.02362243
  36         0.00000000
  37        -0.39030637
  38         0.01551959
  39         0.00000000
  40         0.00368707
  41         0.01055708
  42        -0.00404656
  43         0.00204040
  44         0.00000000
  45         0.00000000
  46         0.03315225
  47        -0.04073401
  48        -0.19094676
  49         0.31301958
  50         0.02362243
  51         0.00000000
  52         0.39030637
  53         0.01551959
  54         0.00000000
  55         0.00368707
  56         0.01055708
  57        -0.00404656
  58        -0.00204040
  59         0.00000000
  60         0.00000000
  61         0.08730247
  62         0.21264151
  63         0.08730247
  64         0.21264151
  65         0.00439981
  66         0.00811712
  67        -0.13290906
  68         0.15368701
  69         0.06202691
  70         0.00000000
  71         0.08548460
  72         0.01735034
  73         0.00000000
  74        -0.01619422
  75         0.01943761
  76         0.00087822
  77        -0.01681087
  78         0.00000000
  79         0.00000000
  80         0.00439981
  81         0.00811712
  82        -0.13290906
  83        -0.15368701
  84         0.06202691
  85         0.00000000
  86        -0.08548460
  87         0.01735034
  88         0.00000000
  89        -0.01619422
  90         0.01943761
  91         0.00087822
  92         0.01681087
  93         0.00000000
  94         0.00000000
  95         0.07610625
  96         0.17469671
  97         0.07610625
  98         0.17469671
Sym=    11a1 
Ene=     0.2557
Spin= Alpha
Occup=    0.00000
   1         0.05572007
   2        -0.08889305
   3        -0.69129769
   4        -0.10868718
   5        -0.08969600
   6         0.00000000
   7        -0.32176882
   8        -0.54657533
   9         0.00000000
  10        -0.00267979
  11         0.00818657
  12         0.00005306
  13        -0.00144141
  14         0.00000000
  15         0.00000000
  16         0.05572007
  17        -0.08889305
  18        -0.69129769
  19         0.10868718
  20        -0.08969600
  21         0.00000000
  22         0.32176882