[Molden Format]
[N_Atoms]
                   10
[Atoms] (AU)
C1          1      6           1.50460821      2.23558875      0.00000000
C1          2      6          -1.50460821      2.23558875      0.00000000
C2          3      6           2.53908210      0.01871122      0.00000000
C2          4      6          -2.53908210      0.01871122      0.00000000
H3          5      1          -2.22480494      4.12473475      0.00000000
H3          6      1           2.22480494      4.12473475      0.00000000
C4          7      6           1.35186649     -2.25819769      0.00000000
C4          8      6          -1.35186649     -2.25819769      0.00000000
H5          9      1           2.24586960     -4.07789859      0.00000000
H5         10      1          -2.24586960     -4.07789859      0.00000000
[Charge] (Mulliken)
 -0.57000010361460340     
 -0.57000010361460340     
   9.3289139290893885E-002
   9.3289139290893885E-002
  0.51120186494113984     
  0.51120186494113984     
 -0.51584661087679429     
 -0.51584661087679429     
  0.48135571025917545     
  0.48135571025917545     
[GTO] (AU)
   1
   s   6
  3.047524880E+03  1.834737132E-03
  4.573695180E+02  1.403732281E-02
  1.039486850E+02  6.884262227E-02
  2.921015530E+01  2.321844432E-01
  9.286662960E+00  4.679413484E-01
  3.163926960E+00  3.623119853E-01
   s   3
  7.868272350E+00 -1.193324198E-01
  1.881288540E+00 -1.608541517E-01
  5.442492580E-01  1.143456438E+00
   s   1
  1.687144782E-01  1.000000000E+00
   p   3
  7.868272350E+00  6.899906659E-02
  1.881288540E+00  3.164239610E-01
  5.442492580E-01  7.443082909E-01
   p   1
  1.687144782E-01  1.000000000E+00
   d   1
  8.000000000E-01  1.000000000E+00
 
   2
   s   6
  3.047524880E+03  1.834737132E-03
  4.573695180E+02  1.403732281E-02
  1.039486850E+02  6.884262227E-02
  2.921015530E+01  2.321844432E-01
  9.286662960E+00  4.679413484E-01
  3.163926960E+00  3.623119853E-01
   s   3
  7.868272350E+00 -1.193324198E-01
  1.881288540E+00 -1.608541517E-01
  5.442492580E-01  1.143456438E+00
   s   1
  1.687144782E-01  1.000000000E+00
   p   3
  7.868272350E+00  6.899906659E-02
  1.881288540E+00  3.164239610E-01
  5.442492580E-01  7.443082909E-01
   p   1
  1.687144782E-01  1.000000000E+00
   d   1
  8.000000000E-01  1.000000000E+00
 
   3
   s   6
  3.047524880E+03  1.834737132E-03
  4.573695180E+02  1.403732281E-02
  1.039486850E+02  6.884262227E-02
  2.921015530E+01  2.321844432E-01
  9.286662960E+00  4.679413484E-01
  3.163926960E+00  3.623119853E-01
   s   3
  7.868272350E+00 -1.193324198E-01
  1.881288540E+00 -1.608541517E-01
  5.442492580E-01  1.143456438E+00
   s   1
  1.687144782E-01  1.000000000E+00
   p   3
  7.868272350E+00  6.899906659E-02
  1.881288540E+00  3.164239610E-01
  5.442492580E-01  7.443082909E-01
   p   1
  1.687144782E-01  1.000000000E+00
   d   1
  8.000000000E-01  1.000000000E+00
 
   4
   s   6
  3.047524880E+03  1.834737132E-03
  4.573695180E+02  1.403732281E-02
  1.039486850E+02  6.884262227E-02
  2.921015530E+01  2.321844432E-01
  9.286662960E+00  4.679413484E-01
  3.163926960E+00  3.623119853E-01
   s   3
  7.868272350E+00 -1.193324198E-01
  1.881288540E+00 -1.608541517E-01
  5.442492580E-01  1.143456438E+00
   s   1
  1.687144782E-01  1.000000000E+00
   p   3
  7.868272350E+00  6.899906659E-02
  1.881288540E+00  3.164239610E-01
  5.442492580E-01  7.443082909E-01
   p   1
  1.687144782E-01  1.000000000E+00
   d   1
  8.000000000E-01  1.000000000E+00
 
   5
   s   3
  1.873113696E+01  3.349460434E-02
  2.825394365E+00  2.347269535E-01
  6.401216923E-01  8.137573261E-01
   s   1
  1.612777588E-01  1.000000000E+00
 
   6
   s   3
  1.873113696E+01  3.349460434E-02
  2.825394365E+00  2.347269535E-01
  6.401216923E-01  8.137573261E-01
   s   1
  1.612777588E-01  1.000000000E+00
 
   7
   s   6
  3.047524880E+03  1.834737132E-03
  4.573695180E+02  1.403732281E-02
  1.039486850E+02  6.884262227E-02
  2.921015530E+01  2.321844432E-01
  9.286662960E+00  4.679413484E-01
  3.163926960E+00  3.623119853E-01
   s   3
  7.868272350E+00 -1.193324198E-01
  1.881288540E+00 -1.608541517E-01
  5.442492580E-01  1.143456438E+00
   s   1
  1.687144782E-01  1.000000000E+00
   p   3
  7.868272350E+00  6.899906659E-02
  1.881288540E+00  3.164239610E-01
  5.442492580E-01  7.443082909E-01
   p   1
  1.687144782E-01  1.000000000E+00
   d   1
  8.000000000E-01  1.000000000E+00
 
   8
   s   6
  3.047524880E+03  1.834737132E-03
  4.573695180E+02  1.403732281E-02
  1.039486850E+02  6.884262227E-02
  2.921015530E+01  2.321844432E-01
  9.286662960E+00  4.679413484E-01
  3.163926960E+00  3.623119853E-01
   s   3
  7.868272350E+00 -1.193324198E-01
  1.881288540E+00 -1.608541517E-01
  5.442492580E-01  1.143456438E+00
   s   1
  1.687144782E-01  1.000000000E+00
   p   3
  7.868272350E+00  6.899906659E-02
  1.881288540E+00  3.164239610E-01
  5.442492580E-01  7.443082909E-01
   p   1
  1.687144782E-01  1.000000000E+00
   d   1
  8.000000000E-01  1.000000000E+00
 
   9
   s   3
  1.873113696E+01  3.349460434E-02
  2.825394365E+00  2.347269535E-01
  6.401216923E-01  8.137573261E-01
   s   1
  1.612777588E-01  1.000000000E+00
 
  10
   s   3
  1.873113696E+01  3.349460434E-02
  2.825394365E+00  2.347269535E-01
  6.401216923E-01  8.137573261E-01
   s   1
  1.612777588E-01  1.000000000E+00
 
[MO]
Sym=     1a1 
Ene=   -11.2660
Spin= Alpha
Occup=    2.00000
   1         0.70242895
   2         0.01925175
   3        -0.00647030
   4        -0.00004648
   5         0.00005099
   6         0.00000000
   7        -0.00047782
   8         0.00046100
   9         0.00000000
  10        -0.00192035
  11        -0.00101279
  12        -0.00171851
  13        -0.00006939
  14         0.00000000
  15         0.00000000
  16         0.70242895
  17         0.01925175
  18        -0.00647030
  19         0.00004648
  20         0.00005099
  21         0.00000000
  22         0.00047782
  23         0.00046100
  24         0.00000000
  25        -0.00192035
  26        -0.00101279
  27        -0.00171851
  28         0.00006939
  29         0.00000000
  30         0.00000000
  31         0.03172162
  32         0.00046030
  33         0.00255719
  34         0.00012515
  35        -0.00012495
  36         0.00000000
  37        -0.00049090
  38         0.00117168
  39         0.00000000
  40        -0.00023376
  41        -0.00009950
  42        -0.00018358
  43        -0.00002894
  44         0.00000000
  45         0.00000000
  46         0.03172162
  47         0.00046030
  48         0.00255719
  49        -0.00012515
  50        -0.00012495
  51         0.00000000
  52         0.00049090
  53         0.00117168
  54         0.00000000
  55        -0.00023376
  56        -0.00009950
  57        -0.00018358
  58         0.00002894
  59         0.00000000
  60         0.00000000
  61        -0.00029067
  62         0.00136011
  63        -0.00029067
  64         0.00136011
  65         0.03342098
  66         0.00079319
  67        -0.00010358
  68        -0.00000323
  69        -0.00004641
  70         0.00000000
  71         0.00003636
  72         0.00015129
  73         0.00000000
  74        -0.00009885
  75         0.00002102
  76        -0.00012211
  77        -0.00000828
  78         0.00000000
  79         0.00000000
  80         0.03342098
  81         0.00079319
  82        -0.00010358
  83         0.00000323
  84        -0.00004641
  85         0.00000000
  86        -0.00003636
  87         0.00015129
  88         0.00000000
  89        -0.00009885
  90         0.00002102
  91        -0.00012211
  92         0.00000828
  93         0.00000000
  94         0.00000000
  95        -0.00002042
  96         0.00018906
  97        -0.00002042
  98         0.00018906
Sym=     2a1 
Ene=   -11.2660
Spin= Alpha
Occup=    2.00000
   1        -0.03437527
   2        -0.00106350
   3         0.00042870
   4         0.00002383
   5         0.00001168
   6         0.00000000
   7         0.00007625
   8        -0.00017308
   9         0.00000000
  10         0.00009452
  11         0.00015731
  12         0.00003879
  13        -0.00001146
  14         0.00000000
  15         0.00000000
  16        -0.03437527
  17        -0.00106350
  18         0.00042870
  19        -0.00002383
  20         0.00001168
  21         0.00000000
  22        -0.00007625
  23        -0.00017308
  24         0.00000000
  25         0.00009452
  26         0.00015731
  27         0.00003879
  28         0.00001146
  29         0.00000000
  30         0.00000000
  31         0.01965222
  32         0.00032906
  33         0.00218984
  34         0.00010657
  35         0.00011887
  36         0.00000000
  37        -0.00049554
  38        -0.00108759
  39         0.00000000
  40        -0.00018761
  41        -0.00027408
  42        -0.00012937
  43        -0.00001176
  44         0.00000000
  45         0.00000000
  46         0.01965222
  47         0.00032906
  48         0.00218984
  49        -0.00010657
  50         0.00011887
  51         0.00000000
  52         0.00049554
  53        -0.00108759
  54         0.00000000
  55        -0.00018761
  56        -0.00027408
  57        -0.00012937
  58         0.00001176
  59         0.00000000
  60         0.00000000
  61         0.00000270
  62         0.00005112
  63         0.00000270
  64         0.00005112
  65         0.70277597
  66         0.01929749
  67        -0.00624187
  68         0.00007475
  69         0.00010197
  70         0.00000000
  71        -0.00059000
  72        -0.00054523
  73         0.00000000
  74        -0.00160457
  75        -0.00124025
  76        -0.00171298
  77         0.00004495
  78         0.00000000
  79         0.00000000
  80         0.70277597
  81         0.01929749
  82        -0.00624187
  83        -0.00007475
  84         0.00010197
  85         0.00000000
  86         0.00059000
  87        -0.00054523
  88         0.00000000
  89        -0.00160457
  90        -0.00124025
  91        -0.00171298
  92        -0.00004495
  93         0.00000000
  94         0.00000000
  95        -0.00019047
  96         0.00127892
  97        -0.00019047
  98         0.00127892
Sym=     3a1 
Ene=   -11.2430
Spin= Alpha
Occup=    2.00000
   1        -0.03132904
   2        -0.00130195
   3         0.00427858
   4        -0.00008579
   5         0.00023198
   6         0.00000000
   7         0.00008152
   8        -0.00231612
   9         0.00000000
  10        -0.00014878
  11        -0.00009200
  12        -0.00003825
  13         0.00012789
  14         0.00000000
  15         0.00000000
  16        -0.03132904
  17        -0.00130195
  18         0.00427858
  19         0.00008579
  20         0.00023198
  21         0.00000000
  22        -0.00008152
  23        -0.00231612
  24         0.00000000
  25        -0.00014878
  26        -0.00009200
  27        -0.00003825
  28        -0.00012789
  29         0.00000000
  30         0.00000000
  31         0.70308883
  32         0.01939703
  33        -0.01096551
  34        -0.00074675
  35        -0.00004268
  36         0.00000000
  37         0.00284151
  38        -0.00023057
  39         0.00000000
  40        -0.00160315
  41        -0.00059340
  42        -0.00163637
  43         0.00001142
  44         0.00000000
  45         0.00000000
  46         0.70308883
  47         0.01939703
  48        -0.01096551
  49         0.00074675
  50        -0.00004268
  51         0.00000000
  52        -0.00284151
  53        -0.00023057
  54         0.00000000
  55        -0.00160315
  56        -0.00059340
  57        -0.00163637
  58        -0.00001142
  59         0.00000000
  60         0.00000000
  61         0.00000848
  62         0.00049611
  63         0.00000848
  64         0.00049611
  65        -0.02159621
  66        -0.00090781
  67         0.00357795
  68        -0.00008392
  69        -0.00025198
  70         0.00000000
  71         0.00000874
  72         0.00193638
  73         0.00000000
  74        -0.00018795
  75        -0.00024887
  76        -0.00008190
  77        -0.00020634
  78         0.00000000
  79         0.00000000
  80        -0.02159621
  81        -0.00090781
  82         0.00357795
  83         0.00008392
  84        -0.00025198
  85         0.00000000
  86        -0.00000874
  87         0.00193638
  88         0.00000000
  89        -0.00018795
  90        -0.00024887
  91        -0.00008190
  92         0.00020634
  93         0.00000000
  94         0.00000000
  95         0.00000091
  96         0.00042271
  97         0.00000091
  98         0.00042271
Sym=     4a1 
Ene=    -1.1617
Spin= Alpha
Occup=    2.00000
   1        -0.08575093
   2         0.16266250
   3         0.10667866
   4        -0.01614076
   5        -0.06263053
   6         0.00000000
   7        -0.00671082
   8        -0.00580591
   9         0.00000000
  10         0.00443302
  11         0.00936815
  12        -0.00789657
  13        -0.00113241
  14         0.00000000
  15         0.00000000
  16        -0.08575093
  17         0.16266250
  18         0.10667866
  19         0.01614076
  20        -0.06263053
  21         0.00000000
  22         0.00671082
  23        -0.00580591
  24         0.00000000
  25         0.00443302
  26         0.00936815
  27        -0.00789657
  28         0.00113241
  29         0.00000000
  30         0.00000000
  31        -0.09600992
  32         0.18267893
  33         0.10024245
  34        -0.07294108
  35         0.00123359
  36         0.00000000
  37        -0.00776890
  38        -0.00200463
  39         0.00000000
  40        -0.00047448
  41         0.00878827
  42        -0.00874807
  43         0.00079430
  44         0.00000000
  45         0.00000000
  46        -0.09600992
  47         0.18267893
  48         0.10024245
  49         0.07294108
  50         0.00123359
  51         0.00000000
  52         0.00776890
  53        -0.00200463
  54         0.00000000
  55        -0.00047448
  56         0.00878827
  57        -0.00874807
  58        -0.00079430
  59         0.00000000
  60         0.00000000
  61         0.03213627
  62         0.00258138
  63         0.03213627
  64         0.00258138
  65        -0.09794273
  66         0.18807081
  67         0.11865597
  68        -0.03428046
  69         0.05642339
  70         0.00000000
  71        -0.00666707
  72         0.00575357
  73         0.00000000
  74         0.00713849
  75         0.00811287
  76        -0.00905022
  77         0.00100812
  78         0.00000000
  79         0.00000000
  80        -0.09794273
  81         0.18807081
  82         0.11865597
  83         0.03428046
  84         0.05642339
  85         0.00000000
  86         0.00666707
  87         0.00575357
  88         0.00000000
  89         0.00713849
  90         0.00811287
  91        -0.00905022
  92        -0.00100812
  93         0.00000000
  94         0.00000000
  95         0.03787372
  96         0.00345813
  97         0.03787372
  98         0.00345813
Sym=     5a1 
Ene=    -1.0185
Spin= Alpha
Occup=    2.00000
   1         0.10865999
   2        -0.20822226
   3        -0.17333278
   4         0.02272566
   5         0.00997920
   6         0.00000000
   7         0.00699693
   8        -0.00611133
   9         0.00000000
  10        -0.00861835
  11        -0.00926598
  12         0.00918167
  13         0.00029291
  14         0.00000000
  15         0.00000000
  16         0.10865999
  17        -0.20822226
  18        -0.17333278
  19        -0.02272566
  20         0.00997920
  21         0.00000000
  22        -0.00699693
  23        -0.00611133
  24         0.00000000
  25        -0.00861835
  26        -0.00926598
  27         0.00918167
  28        -0.00029291
  29         0.00000000
  30         0.00000000
  31         0.01557415
  32        -0.02939089
  33        -0.01804775
  34         0.00467455
  35        -0.13774576
  36         0.00000000
  37        -0.00160849
  38        -0.00871035
  39         0.00000000
  40         0.00142964
  41         0.00024278
  42         0.00075679
  43         0.01149827
  44         0.00000000
  45         0.00000000
  46         0.01557415
  47        -0.02939089
  48        -0.01804775
  49        -0.00467455
  50        -0.13774576
  51         0.00000000
  52         0.00160849
  53        -0.00871035
  54         0.00000000
  55         0.00142964
  56         0.00024278
  57         0.00075679
  58        -0.01149827
  59         0.00000000
  60         0.00000000
  61        -0.07048590
  62        -0.01376501
  63        -0.07048590
  64        -0.01376501
  65        -0.10872187
  66         0.21164377
  67         0.17215027
  68        -0.05641318
  69        -0.01623767
  70         0.00000000
  71        -0.00509105
  72        -0.01092003
  73         0.00000000
  74         0.01102939
  75         0.00373741
  76        -0.00881678
  77        -0.00217111
  78         0.00000000
  79         0.00000000
  80        -0.10872187
  81         0.21164377
  82         0.17215027
  83         0.05641318
  84        -0.01623767
  85         0.00000000
  86         0.00509105
  87        -0.01092003
  88         0.00000000
  89         0.01102939
  90         0.00373741
  91        -0.00881678
  92         0.00217111
  93         0.00000000
  94         0.00000000
  95         0.07106177
  96         0.01252119
  97         0.07106177
  98         0.01252119
Sym=     6a1 
Ene=    -0.7966
Spin= Alpha
Occup=    2.00000
   1        -0.04744467
   2         0.09499442
   3         0.08830024
   4        -0.05598141
   5         0.20285493
   6         0.00000000
   7        -0.01953788
   8         0.08152275
   9         0.00000000
  10         0.00701105
  11         0.00691023
  12        -0.00387720
  13         0.00674527
  14         0.00000000
  15         0.00000000
  16        -0.04744467
  17         0.09499442
  18         0.08830024
  19         0.05598141
  20         0.20285493
  21         0.00000000
  22         0.01953788
  23         0.08152275
  24         0.00000000
  25         0.00701105
  26         0.00691023
  27        -0.00387720
  28        -0.00674527
  29         0.00000000
  30         0.00000000
  31         0.08158735
  32        -0.16400560
  33        -0.09492121
  34         0.04005644
  35         0.00888216
  36         0.00000000
  37        -0.01199466
  38         0.00957611
  39         0.00000000
  40         0.00079260
  41        -0.00489725
  42         0.00534702
  43         0.00040813
  44         0.00000000
  45         0.00000000
  46         0.08158735
  47        -0.16400560
  48        -0.09492121
  49        -0.04005644
  50         0.00888216
  51         0.00000000
  52         0.01199466
  53         0.00957611
  54         0.00000000
  55         0.00079260
  56        -0.00489725
  57         0.00534702
  58        -0.00040813
  59         0.00000000
  60         0.00000000
  61         0.12659633
  62         0.05506784
  63         0.12659633
  64         0.05506784
  65        -0.03864137
  66         0.07740535
  67         0.07471694
  68        -0.07862063
  69        -0.18256027
  70         0.00000000
  71        -0.01754374
  72        -0.06779788
  73         0.00000000
  74         0.00700827
  75        -0.00021079
  76        -0.00270362
  77        -0.00753510
  78         0.00000000
  79         0.00000000
  80        -0.03864137
  81         0.07740535
  82         0.07471694
  83         0.07862063
  84        -0.18256027
  85         0.00000000
  86         0.01754374
  87        -0.06779788
  88         0.00000000
  89         0.00700827
  90        -0.00021079
  91        -0.00270362
  92         0.00753510
  93         0.00000000
  94         0.00000000
  95         0.09665705
  96         0.04107116
  97         0.09665705
  98         0.04107116
Sym=     7a1 
Ene=    -0.6547
Spin= Alpha
Occup=    2.00000
   1         0.01209438
   2        -0.02223696
   3        -0.03435795
   4        -0.09992138
   5         0.21636234
   6         0.00000000
   7        -0.04458215
   8         0.08804188
   9         0.00000000
  10         0.00140478
  11         0.00734334
  12         0.00055527
  13         0.00915111
  14         0.00000000
  15         0.00000000
  16         0.01209438
  17        -0.02223696
  18        -0.03435795
  19         0.09992138
  20         0.21636234
  21         0.00000000
  22         0.04458215
  23         0.08804188
  24         0.00000000
  25         0.00140478
  26         0.00734334
  27         0.00055527
  28        -0.00915111
  29         0.00000000
  30         0.00000000
  31         0.00804819
  32        -0.01489728
  33        -0.00409295
  34        -0.02618959
  35        -0.26217871
  36         0.00000000
  37        -0.01353568
  38        -0.04352147
  39         0.00000000
  40         0.00320993
  41        -0.00165324
  42         0.00001353
  43         0.01706991
  44         0.00000000
  45         0.00000000
  46         0.00804819
  47        -0.01489728
  48        -0.00409295
  49         0.02618959
  50        -0.26217871
  51         0.00000000
  52         0.01353568
  53        -0.04352147
  54         0.00000000
  55         0.00320993
  56        -0.00165324
  57         0.00001353
  58        -0.01706991
  59         0.00000000
  60         0.00000000
  61         0.08791237
  62         0.05946378
  63         0.08791237
  64         0.05946378
  65        -0.00953818
  66         0.02048367
  67         0.02705912
  68         0.04382469
  69         0.24689644
  70         0.00000000
  71         0.02038721
  72         0.09915714
  73         0.00000000
  74        -0.00000658
  75        -0.00667379
  76        -0.00049590
  77         0.00765347
  78         0.00000000
  79         0.00000000
  80        -0.00953818
  81         0.02048367
  82         0.02705912
  83        -0.04382469
  84         0.24689644
  85         0.00000000
  86        -0.02038721
  87         0.09915714
  88         0.00000000
  89        -0.00000658
  90        -0.00667379
  91        -0.00049590
  92        -0.00765347
  93         0.00000000
  94         0.00000000
  95        -0.10898323
  96        -0.07191596
  97        -0.10898323
  98        -0.07191596
Sym=     8a1 
Ene=    -0.6418
Spin= Alpha
Occup=    2.00000
   1         0.00919946
   2        -0.02088446
   3        -0.01291662
   4         0.14546004
   5         0.08400075
   6         0.00000000
   7         0.06285055
   8         0.03800948
   9         0.00000000
  10        -0.00564724
  11         0.00530477
  12         0.00060401
  13        -0.00220924
  14         0.00000000
  15         0.00000000
  16         0.00919946
  17        -0.02088446
  18        -0.01291662
  19        -0.14546004
  20         0.08400075
  21         0.00000000
  22        -0.06285055
  23         0.03800948
  24         0.00000000
  25        -0.00564724
  26         0.00530477
  27         0.00060401
  28         0.00220924
  29         0.00000000
  30         0.00000000
  31        -0.05765037
  32         0.11816631
  33         0.14380850
  34         0.11956111
  35        -0.07138793
  36         0.00000000
  37         0.05596413
  38        -0.01594322
  39         0.00000000
  40        -0.01552258
  41         0.01369674
  42        -0.00043271
  43         0.00224511
  44         0.00000000
  45         0.00000000
  46        -0.05765037
  47         0.11816631
  48         0.14380850
  49        -0.11956111
  50        -0.07138793
  51         0.00000000
  52        -0.05596413
  53        -0.01594322
  54         0.00000000
  55        -0.01552258
  56         0.01369674
  57        -0.00043271
  58        -0.00224511
  59         0.00000000
  60         0.00000000
  61         0.06574105
  62         0.04172963
  63         0.06574105
  64         0.04172963
  65         0.00864343
  66        -0.02213441
  67         0.00746859
  68         0.30187013
  69        -0.05203107
  70         0.00000000
  71         0.11993736
  72        -0.02934671
  73         0.00000000
  74        -0.00922125
  75         0.01216645
  76        -0.00013050
  77         0.00392404
  78         0.00000000
  79         0.00000000
  80         0.00864343
  81        -0.02213441
  82         0.00746859
  83        -0.30187013
  84        -0.05203107
  85         0.00000000
  86        -0.11993736
  87        -0.02934671
  88         0.00000000
  89        -0.00922125
  90         0.01216645
  91        -0.00013050
  92        -0.00392404
  93         0.00000000
  94         0.00000000
  95         0.09553246
  96         0.06023549
  97         0.09553246
  98         0.06023549
Sym=     9a1 
Ene=    -0.5423
Spin= Alpha
Occup=    2.00000
   1         0.01691519
   2        -0.03542767
   3        -0.04547558
   4         0.30700974
   5         0.07965191
   6         0.00000000
   7         0.15065075
   8         0.05043837
   9         0.00000000
  10        -0.01433729
  11         0.01299369
  12        -0.00012390
  13        -0.00293386
  14         0.00000000
  15         0.00000000
  16         0.01691519
  17        -0.03542767
  18        -0.04547558
  19        -0.30700974
  20         0.07965191
  21         0.00000000
  22        -0.15065075
  23         0.05043837
  24         0.00000000
  25        -0.01433729
  26         0.01299369
  27        -0.00012390
  28         0.00293386
  29         0.00000000
  30         0.00000000
  31        -0.01946685
  32         0.03957748
  33         0.05406074
  34         0.06282370
  35         0.09228739
  36         0.00000000
  37         0.03458762
  38         0.02590720
  39         0.00000000
  40        -0.00511944
  41         0.00389471
  42         0.00046975
  43         0.01154032
  44         0.00000000
  45         0.00000000
  46        -0.01946685
  47         0.03957748
  48         0.05406074
  49        -0.06282370
  50         0.09228739
  51         0.00000000
  52        -0.03458762
  53         0.02590720
  54         0.00000000
  55        -0.00511944
  56         0.00389471
  57         0.00046975
  58        -0.01154032
  59         0.00000000
  60         0.00000000
  61         0.10412902
  62         0.07782066
  63         0.10412902
  64         0.07782066
  65        -0.01310653
  66         0.02937493
  67         0.02747242
  68        -0.22345541
  69         0.06568728
  70         0.00000000
  71        -0.09734622
  72         0.03959298
  73         0.00000000
  74         0.01045981
  75        -0.01477275
  76         0.00058266
  77         0.00210219
  78         0.00000000
  79         0.00000000
  80        -0.01310653
  81         0.02937493
  82         0.02747242
  83         0.22345541
  84         0.06568728
  85         0.00000000
  86         0.09734622
  87         0.03959298
  88         0.00000000
  89         0.01045981
  90        -0.01477275
  91         0.00058266
  92        -0.00210219
  93         0.00000000
  94         0.00000000
  95        -0.09332603
  96        -0.07427334
  97        -0.09332603
  98        -0.07427334
Sym=    10a1 
Ene=    -0.0009
Spin= Alpha
Occup=    0.00000
   1         0.00724356
   2         0.00826540
   3        -0.18449980
   4         0.18503695
   5        -0.05479291
   6         0.00000000
   7         0.13640522
   8        -0.02252009
   9         0.00000000
  10        -0.02053644
  11         0.02045480
  12         0.00045163
  13         0.01735207
  14         0.00000000
  15         0.00000000
  16         0.00724356
  17         0.00826540
  18        -0.18449980
  19        -0.18503695
  20        -0.05479291
  21         0.00000000
  22        -0.13640522
  23        -0.02252009
  24         0.00000000
  25        -0.02053644
  26         0.02045480
  27         0.00045163
  28        -0.01735207
  29         0.00000000
  30         0.00000000
  31         0.03315216
  32        -0.04073368
  33        -0.19094513
  34        -0.31301950
  35         0.02362221
  36         0.00000000
  37        -0.39030755
  38         0.01552070
  39         0.00000000
  40         0.00368691
  41         0.01055722
  42        -0.00404657
  43         0.00204048
  44         0.00000000
  45         0.00000000
  46         0.03315216
  47        -0.04073368
  48        -0.19094513
  49         0.31301950
  50         0.02362221
  51         0.00000000
  52         0.39030755
  53         0.01552070
  54         0.00000000
  55         0.00368691
  56         0.01055722
  57        -0.00404657
  58        -0.00204048
  59         0.00000000
  60         0.00000000
  61         0.08730220
  62         0.21263927
  63         0.08730220
  64         0.21263927
  65         0.00439978
  66         0.00811734
  67        -0.13290825
  68         0.15368786
  69         0.06202690
  70         0.00000000
  71         0.08548550
  72         0.01734949
  73         0.00000000
  74        -0.01619421
  75         0.01943762
  76         0.00087822
  77        -0.01681077
  78         0.00000000
  79         0.00000000
  80         0.00439978
  81         0.00811734
  82        -0.13290825
  83        -0.15368786
  84         0.06202690
  85         0.00000000
  86        -0.08548550
  87         0.01734949
  88         0.00000000
  89        -0.01619421
  90         0.01943762
  91         0.00087822
  92         0.01681077
  93         0.00000000
  94         0.00000000
  95         0.07610633
  96         0.17469555
  97         0.07610633
  98         0.17469555
Sym=    11a1 
Ene=     0.2557
Spin= Alpha
Occup=    0.00000
   1         0.05572004
   2        -0.08889314
   3        -0.69129615
   4        -0.10868668
   5        -0.08969587
   6         0.00000000
   7        -0.32176803
   8        -0.54657517
   9         0.00000000
  10        -0.00267986
  11         0.00818664
  12         0.00005304
  13        -0.00144133
  14         0.00000000
  15         0.00000000
  16         0.05572004
  17        -0.08889314
  18        -0.69129615
  19         0.10868668
  20        -0.08969587
  21         0.00000000
  22         0.32176803