[Molden Format]
[N_Atoms]
                   10
[Atoms] (AU)
C1          1      6           1.50460820      2.23558875      0.00000000
C2          2      6          -1.50460820      2.23558875      0.00000000
C3          3      6           2.53908209      0.01871122      0.00000000
C4          4      6          -2.53908209      0.01871122      0.00000000
H5          5      1          -2.22480493      4.12473475      0.00000000
H6          6      1           2.22480493      4.12473475      0.00000000
C7          7      6           1.35186649     -2.25819770      0.00000000
C8          8      6          -1.35186649     -2.25819770      0.00000000
H9          9      1           2.24586960     -4.07789859      0.00000000
H10        10      1          -2.24586960     -4.07789859      0.00000000
[Charge] (Mulliken)
 -0.28500247214668306     
 -0.28499880839445346     
   4.6645495163168960E-002
   4.6645254676851877E-002
  0.25560015704760752     
  0.25560074831343538     
 -0.25792079567027670     
 -0.25792497983088225     
  0.24067755875766761     
  0.24067784208163134     
[GTO] (AU)
   1
   s   6
  3.047524880E+03  1.834737132E-03
  4.573695180E+02  1.403732281E-02
  1.039486850E+02  6.884262227E-02
  2.921015530E+01  2.321844432E-01
  9.286662960E+00  4.679413484E-01
  3.163926960E+00  3.623119853E-01
   s   3
  7.868272350E+00 -1.193324198E-01
  1.881288540E+00 -1.608541517E-01
  5.442492580E-01  1.143456438E+00
   s   1
  1.687144782E-01  1.000000000E+00
   p   3
  7.868272350E+00  6.899906659E-02
  1.881288540E+00  3.164239610E-01
  5.442492580E-01  7.443082909E-01
   p   1
  1.687144782E-01  1.000000000E+00
   d   1
  8.000000000E-01  1.000000000E+00
 
   2
   s   6
  3.047524880E+03  1.834737132E-03
  4.573695180E+02  1.403732281E-02
  1.039486850E+02  6.884262227E-02
  2.921015530E+01  2.321844432E-01
  9.286662960E+00  4.679413484E-01
  3.163926960E+00  3.623119853E-01
   s   3
  7.868272350E+00 -1.193324198E-01
  1.881288540E+00 -1.608541517E-01
  5.442492580E-01  1.143456438E+00
   s   1
  1.687144782E-01  1.000000000E+00
   p   3
  7.868272350E+00  6.899906659E-02
  1.881288540E+00  3.164239610E-01
  5.442492580E-01  7.443082909E-01
   p   1
  1.687144782E-01  1.000000000E+00
   d   1
  8.000000000E-01  1.000000000E+00
 
   3
   s   6
  3.047524880E+03  1.834737132E-03
  4.573695180E+02  1.403732281E-02
  1.039486850E+02  6.884262227E-02
  2.921015530E+01  2.321844432E-01
  9.286662960E+00  4.679413484E-01
  3.163926960E+00  3.623119853E-01
   s   3
  7.868272350E+00 -1.193324198E-01
  1.881288540E+00 -1.608541517E-01
  5.442492580E-01  1.143456438E+00
   s   1
  1.687144782E-01  1.000000000E+00
   p   3
  7.868272350E+00  6.899906659E-02
  1.881288540E+00  3.164239610E-01
  5.442492580E-01  7.443082909E-01
   p   1
  1.687144782E-01  1.000000000E+00
   d   1
  8.000000000E-01  1.000000000E+00
 
   4
   s   6
  3.047524880E+03  1.834737132E-03
  4.573695180E+02  1.403732281E-02
  1.039486850E+02  6.884262227E-02
  2.921015530E+01  2.321844432E-01
  9.286662960E+00  4.679413484E-01
  3.163926960E+00  3.623119853E-01
   s   3
  7.868272350E+00 -1.193324198E-01
  1.881288540E+00 -1.608541517E-01
  5.442492580E-01  1.143456438E+00
   s   1
  1.687144782E-01  1.000000000E+00
   p   3
  7.868272350E+00  6.899906659E-02
  1.881288540E+00  3.164239610E-01
  5.442492580E-01  7.443082909E-01
   p   1
  1.687144782E-01  1.000000000E+00
   d   1
  8.000000000E-01  1.000000000E+00
 
   5
   s   3
  1.873113696E+01  3.349460434E-02
  2.825394365E+00  2.347269535E-01
  6.401216923E-01  8.137573261E-01
   s   1
  1.612777588E-01  1.000000000E+00
 
   6
   s   3
  1.873113696E+01  3.349460434E-02
  2.825394365E+00  2.347269535E-01
  6.401216923E-01  8.137573261E-01
   s   1
  1.612777588E-01  1.000000000E+00
 
   7
   s   6
  3.047524880E+03  1.834737132E-03
  4.573695180E+02  1.403732281E-02
  1.039486850E+02  6.884262227E-02
  2.921015530E+01  2.321844432E-01
  9.286662960E+00  4.679413484E-01
  3.163926960E+00  3.623119853E-01
   s   3
  7.868272350E+00 -1.193324198E-01
  1.881288540E+00 -1.608541517E-01
  5.442492580E-01  1.143456438E+00
   s   1
  1.687144782E-01  1.000000000E+00
   p   3
  7.868272350E+00  6.899906659E-02
  1.881288540E+00  3.164239610E-01
  5.442492580E-01  7.443082909E-01
   p   1
  1.687144782E-01  1.000000000E+00
   d   1
  8.000000000E-01  1.000000000E+00
 
   8
   s   6
  3.047524880E+03  1.834737132E-03
  4.573695180E+02  1.403732281E-02
  1.039486850E+02  6.884262227E-02
  2.921015530E+01  2.321844432E-01
  9.286662960E+00  4.679413484E-01
  3.163926960E+00  3.623119853E-01
   s   3
  7.868272350E+00 -1.193324198E-01
  1.881288540E+00 -1.608541517E-01
  5.442492580E-01  1.143456438E+00
   s   1
  1.687144782E-01  1.000000000E+00
   p   3
  7.868272350E+00  6.899906659E-02
  1.881288540E+00  3.164239610E-01
  5.442492580E-01  7.443082909E-01
   p   1
  1.687144782E-01  1.000000000E+00
   d   1
  8.000000000E-01  1.000000000E+00
 
   9
   s   3
  1.873113696E+01  3.349460434E-02
  2.825394365E+00  2.347269535E-01
  6.401216923E-01  8.137573261E-01
   s   1
  1.612777588E-01  1.000000000E+00
 
  10
   s   3
  1.873113696E+01  3.349460434E-02
  2.825394365E+00  2.347269535E-01
  6.401216923E-01  8.137573261E-01
   s   1
  1.612777588E-01  1.000000000E+00
 
[MO]
Sym=     1a  
Ene=   -11.2660
Spin= Alpha
Occup=    2.00000
   1         0.70512939
   2         0.01932582
   3        -0.00652189
   4        -0.00004673
   5         0.00005097
   6         0.00000000
   7        -0.00047089
   8         0.00047030
   9        -0.00000000
  10        -0.00192445
  11        -0.00101563
  12        -0.00172413
  13        -0.00006990
  14        -0.00000000
  15         0.00000000
  16         0.69971816
  17         0.01917741
  18        -0.00641865
  19         0.00004623
  20         0.00005102
  21         0.00000000
  22         0.00048475
  23         0.00045171
  24        -0.00000000
  25        -0.00191622
  26        -0.00100993
  27        -0.00171286
  28         0.00006887
  29         0.00000000
  30        -0.00000000
  31         0.03183962
  32         0.00046206
  33         0.00258115
  34         0.00012540
  35        -0.00012531
  36        -0.00000000
  37        -0.00049806
  38         0.00117730
  39         0.00000000
  40        -0.00023499
  41        -0.00010034
  42        -0.00018427
  43        -0.00002905
  44         0.00000000
  45        -0.00000000
  46         0.03159988
  47         0.00045845
  48         0.00253326
  49        -0.00012490
  50        -0.00012458
  51        -0.00000000
  52         0.00048376
  53         0.00116604
  54         0.00000000
  55        -0.00023252
  56        -0.00009866
  57        -0.00018288
  58         0.00002884
  59        -0.00000000
  60         0.00000000
  61        -0.00028981
  62         0.00135631
  63        -0.00029152
  64         0.00136389
  65         0.03345921
  66         0.00079446
  67        -0.00011236
  68        -0.00000334
  69        -0.00004635
  70         0.00000000
  71         0.00003932
  72         0.00014713
  73        -0.00000000
  74        -0.00009901
  75         0.00002144
  76        -0.00012202
  77        -0.00000840
  78        -0.00000000
  79        -0.00000000
  80         0.03338426
  81         0.00079196
  82        -0.00009484
  83         0.00000312
  84        -0.00004648
  85         0.00000000
  86        -0.00003340
  87         0.00015543
  88        -0.00000000
  89        -0.00009869
  90         0.00002059
  91        -0.00012219
  92         0.00000817
  93        -0.00000000
  94         0.00000000
  95        -0.00002065
  96         0.00018822
  97        -0.00002019
  98         0.00018989
Sym=     2a  
Ene=   -11.2660
Spin= Alpha
Occup=    2.00000
   1        -0.03500405
   2        -0.00108082
   3         0.00044372
   4         0.00002393
   5         0.00001173
   6        -0.00000000
   7         0.00007387
   8        -0.00017697
   9         0.00000000
  10         0.00009545
  11         0.00015778
  12         0.00004005
  13        -0.00001134
  14        -0.00000000
  15        -0.00000000
  16        -0.03374324
  17        -0.00104609
  18         0.00041364
  19        -0.00002374
  20         0.00001163
  21         0.00000000
  22        -0.00007863
  23        -0.00016918
  24        -0.00000000
  25         0.00009359
  26         0.00015682
  27         0.00003752
  28         0.00001158
  29        -0.00000000
  30        -0.00000000
  31         0.01959370
  32         0.00032809
  33         0.00217569
  34         0.00010639
  35         0.00011883
  36         0.00000000
  37        -0.00049116
  38        -0.00108748
  39        -0.00000000
  40        -0.00018687
  41        -0.00027330
  42        -0.00012897
  43        -0.00001163
  44        -0.00000000
  45        -0.00000000
  46         0.01970855
  47         0.00032998
  48         0.00220403
  49        -0.00010676
  50         0.00011892
  51         0.00000000
  52         0.00049993
  53        -0.00108770
  54        -0.00000000
  55        -0.00018835
  56        -0.00027486
  57        -0.00012976
  58         0.00001189
  59        -0.00000000
  60         0.00000000
  61         0.00000242
  62         0.00005162
  63         0.00000298
  64         0.00005063
  65         0.70180338
  66         0.01927039
  67        -0.00621995
  68         0.00007499
  69         0.00010172
  70        -0.00000000
  71        -0.00059387
  72        -0.00054053
  73         0.00000000
  74        -0.00160343
  75        -0.00123919
  76        -0.00171092
  77         0.00004479
  78        -0.00000000
  79        -0.00000000
  80         0.70374687
  81         0.01932455
  82        -0.00626378
  83        -0.00007452
  84         0.00010222
  85        -0.00000000
  86         0.00058614
  87        -0.00054991
  88         0.00000000
  89        -0.00160570
  90        -0.00124131
  91        -0.00171504
  92        -0.00004511
  93        -0.00000000
  94         0.00000000
  95        -0.00019015
  96         0.00127800
  97        -0.00019078
  98         0.00127985
Sym=     3a  
Ene=   -11.2650
Spin= Alpha
Occup=    2.00000
   1         0.70008177
   2         0.01920549
   3        -0.01343787
   4        -0.00006623
   5        -0.00000617
   6         0.00000000
   7         0.00181770
   8         0.00244294
   9        -0.00000000
  10        -0.00106258
  11        -0.00073484
  12        -0.00145713
  13        -0.00013224
  14        -0.00000000
  15         0.00000000
  16        -0.70554880
  17        -0.01935559
  18         0.01348841
  19        -0.00006664
  20         0.00000579
  21         0.00000000
  22         0.00181388
  23        -0.00244680
  24         0.00000000
  25         0.00107754
  26         0.00074294
  27         0.00147043
  28        -0.00013275
  29         0.00000000
  30        -0.00000000
  31         0.03221205
  32         0.00049497
  33         0.00637163
  34         0.00006614
  35        -0.00009155
  36         0.00000000
  37        -0.00190752
  38         0.00142730
  39         0.00000000
  40        -0.00032945
  41        -0.00023009
  42        -0.00018525
  43        -0.00002915
  44         0.00000000
  45        -0.00000000
  46        -0.03242280
  47        -0.00049800
  48        -0.00638705
  49         0.00006689
  50         0.00009273
  51        -0.00000000
  52        -0.00191033
  53        -0.00143838
  54         0.00000000
  55         0.00033090
  56         0.00023033
  57         0.00018642
  58        -0.00002935
  59         0.00000000
  60        -0.00000000
  61         0.00022511
  62        -0.00098237
  63        -0.00022287
  64         0.00097201
  65         0.02970253
  66         0.00088044
  67        -0.00267605
  68        -0.00003328
  69         0.00002224
  70         0.00000000
  71         0.00083124
  72        -0.00115204
  73         0.00000000
  74        -0.00006576
  75         0.00008642
  76        -0.00002046
  77        -0.00002686
  78        -0.00000000
  79         0.00000000
  80        -0.02861796
  81        -0.00084970
  82         0.00266492
  83        -0.00003344
  84        -0.00002169
  85        -0.00000000
  86         0.00083265
  87         0.00114982
  88        -0.00000000
  89         0.00006346
  90        -0.00008895
  91         0.00001813
  92        -0.00002701
  93        -0.00000000
  94        -0.00000000
  95        -0.00006553
  96        -0.00019350
  97         0.00006533
  98         0.00019449
Sym=     4a  
Ene=   -11.2650
Spin= Alpha
Occup=    2.00000
   1        -0.03009387
   2        -0.00077465
   3        -0.00161926
   4        -0.00002139
   5        -0.00003303
   6        -0.00000000
   7         0.00048097
   8         0.00115478
   9         0.00000000
  10         0.00006965
  11         0.00016715
  12         0.00009886
  13         0.00000303
  14        -0.00000000
  15        -0.00000000
  16         0.03015073
  17         0.00077588
  18         0.00161906
  19        -0.00002144
  20         0.00003307
  21         0.00000000
  22         0.00048087
  23        -0.00115515
  24        -0.00000000
  25        -0.00006981
  26        -0.00016695
  27        -0.00009912
  28         0.00000308
  29         0.00000000
  30         0.00000000
  31         0.02088891
  32         0.00037959
  33         0.00599928
  34         0.00008843
  35         0.00010150
  36        -0.00000000
  37        -0.00190253
  38        -0.00110312
  39        -0.00000000
  40        -0.00032109
  41        -0.00041815
  42        -0.00016280
  43        -0.00007659
  44        -0.00000000
  45        -0.00000000
  46        -0.02082664
  47        -0.00037854
  48        -0.00599290
  49         0.00008812
  50        -0.00010121
  51        -0.00000000
  52        -0.00190110
  53         0.00110045
  54         0.00000000
  55         0.00032053
  56         0.00041740
  57         0.00016241
  58        -0.00007656
  59        -0.00000000
  60         0.00000000
  61         0.00005046
  62         0.00032574
  63        -0.00005051
  64        -0.00032531
  65         0.70422169
  66         0.01959518
  67        -0.01442562
  68        -0.00015419
  69         0.00017272
  70        -0.00000000
  71         0.00228549
  72        -0.00266954
  73         0.00000000
  74        -0.00080441
  75        -0.00085442
  76        -0.00152518
  77         0.00013799
  78        -0.00000000
  79        -0.00000000
  80        -0.70232829
  81        -0.01954319
  82         0.01440886
  83        -0.00015439
  84        -0.00017246
  85         0.00000000
  86         0.00228707
  87         0.00266811
  88        -0.00000000
  89         0.00080007
  90         0.00085109
  91         0.00152055
  92         0.00013787
  93         0.00000000
  94        -0.00000000
  95        -0.00018542
  96         0.00082814
  97         0.00018490
  98        -0.00082467
Sym=     5a  
Ene=   -11.2430
Spin= Alpha
Occup=    2.00000
   1         0.03208608
   2         0.00131853
   3        -0.00835703
   4         0.00017162
   5        -0.00020280
   6         0.00000000
   7         0.00072450
   8         0.00415438
   9        -0.00000000
  10         0.00029371
  11         0.00015531
  12         0.00008121
  13        -0.00008046
  14        -0.00000000
  15         0.00000000
  16        -0.03205560
  17        -0.00131720
  18         0.00835229
  19         0.00017152
  20         0.00020254
  21        -0.00000000
  22         0.00072459
  23        -0.00415180
  24         0.00000000
  25        -0.00029353
  26        -0.00015520
  27        -0.00008116
  28        -0.00008031
  29        -0.00000000
  30         0.00000000
  31        -0.70347156
  32        -0.01968086
  33         0.01553954
  34         0.00080556
  35         0.00005281
  36         0.00000000
  37        -0.00443542
  38         0.00038908
  39        -0.00000000
  40         0.00155279
  41         0.00057347
  42         0.00151567
  43        -0.00001272
  44         0.00000000
  45         0.00000000
  46         0.70268691
  47         0.01965921
  48        -0.01552731
  49         0.00080472
  50        -0.00005278
  51        -0.00000000
  52        -0.00443225
  53        -0.00038883
  54        -0.00000000
  55        -0.00155100
  56        -0.00057281
  57        -0.00151384
  58        -0.00001271
  59        -0.00000000
  60        -0.00000000
  61         0.00004041
  62         0.00072400
  63        -0.00004042
  64        -0.00072456
  65         0.02272446
  66         0.00088575
  67        -0.00801833
  68         0.00013256
  69         0.00021902
  70        -0.00000000
  71         0.00105322
  72        -0.00370023
  73        -0.00000000
  74         0.00040869
  75         0.00033483
  76         0.00010086
  77         0.00017328
  78        -0.00000000
  79        -0.00000000
  80        -0.02269775
  81        -0.00088466
  82         0.00801432
  83         0.00013247
  84        -0.00021874
  85         0.00000000
  86         0.00105323
  87         0.00369806
  88         0.00000000
  89        -0.00040849
  90        -0.00033456
  91        -0.00010077
  92         0.00017306
  93        -0.00000000
  94         0.00000000
  95        -0.00003250
  96        -0.00061985
  97         0.00003250
  98         0.00061939
Sym=     6a  
Ene=   -11.2430
Spin= Alpha
Occup=    2.00000
   1        -0.03130732
   2        -0.00130111
   3         0.00427387
   4        -0.00008569
   5         0.00023186
   6        -0.00000000
   7         0.00008194
   8        -0.00231379
   9         0.00000000
  10        -0.00014863
  11        -0.00009192
  12        -0.00003821
  13         0.00012784
  14        -0.00000000
  15         0.00000000
  16        -0.03134756
  17        -0.00130270
  18         0.00428327
  19         0.00008588
  20         0.00023209
  21         0.00000000
  22        -0.00008112
  23        -0.00231844
  24        -0.00000000
  25        -0.00014895
  26        -0.00009208
  27        -0.00003829
  28        -0.00012793
  29        -0.00000000
  30         0.00000000
  31         0.70269662
  32         0.01938607
  33        -0.01095683
  34        -0.00074629
  35        -0.00004264
  36        -0.00000000
  37         0.00283903
  38        -0.00023035
  39         0.00000000
  40        -0.00160229
  41        -0.00059309
  42        -0.00163553
  43         0.00001141
  44         0.00000000
  45        -0.00000000
  46         0.70348103
  47         0.01940802
  48        -0.01097417
  49         0.00074719
  50        -0.00004271
  51         0.00000000
  52        -0.00284398
  53        -0.00023079
  54         0.00000000
  55        -0.00160402
  56        -0.00059373
  57        -0.00163722
  58        -0.00001143
  59         0.00000000
  60        -0.00000000
  61         0.00000850
  62         0.00049651
  63         0.00000845
  64         0.00049571
  65        -0.02158363
  66        -0.00090733
  67         0.00357348
  68        -0.00008385
  69        -0.00025186
  70        -0.00000000
  71         0.00000932
  72         0.00193432
  73         0.00000000
  74        -0.00018772
  75        -0.00024868
  76        -0.00008184
  77        -0.00020625
  78        -0.00000000
  79        -0.00000000
  80        -0.02160636
  81        -0.00090824
  82         0.00358238
  83         0.00008400
  84        -0.00025210
  85         0.00000000
  86        -0.00000815
  87         0.00193844
  88        -0.00000000
  89        -0.00018818
  90        -0.00024906
  91        -0.00008196
  92         0.00020644
  93        -0.00000000
  94         0.00000000
  95         0.00000089
  96         0.00042237
  97         0.00000093
  98         0.00042306
Sym=     7a  
Ene=    -1.1617
Spin= Alpha
Occup=    2.00000
   1        -0.08575115
   2         0.16266297
   3         0.10667906
   4        -0.01614063
   5        -0.06263050
   6        -0.00000000
   7        -0.00671075
   8        -0.00580582
   9         0.00000000
  10         0.00443302
  11         0.00936816
  12        -0.00789659
  13        -0.00113244
  14        -0.00000000
  15         0.00000000
  16        -0.08575078
  17         0.16266208
  18         0.10667851
  19         0.01614090
  20        -0.06263021
  21        -0.00000000
  22         0.00671083
  23        -0.00580589
  24         0.00000000
  25         0.00443306
  26         0.00936812
  27        -0.00789653
  28         0.00113241
  29        -0.00000000
  30         0.00000000
  31        -0.09600994
  32         0.18267890
  33         0.10024257
  34        -0.07294102
  35         0.00123390
  36        -0.00000000
  37        -0.00776892
  38        -0.00200457
  39         0.00000000
  40        -0.00047449
  41         0.00878828
  42        -0.00874805
  43         0.00079427
  44         0.00000000
  45         0.00000000
  46        -0.09600979
  47         0.18267862
  48         0.10024229
  49         0.07294096
  50         0.00123323
  51        -0.00000000
  52         0.00776887
  53        -0.00200464
  54        -0.00000000
  55        -0.00047448
  56         0.00878826
  57        -0.00874804
  58        -0.00079431
  59         0.00000000
  60         0.00000000
  61         0.03213626
  62         0.00258141
  63         0.03213647
  64         0.00258139
  65        -0.09794267
  66         0.18807064
  67         0.11865586
  68        -0.03428059
  69         0.05642319
  70         0.00000000
  71        -0.00666708
  72         0.00575346
  73        -0.00000000
  74         0.00713851
  75         0.00811286
  76        -0.00905020
  77         0.00100810
  78         0.00000000
  79         0.00000000
  80        -0.09794285
  81         0.18807111
  82         0.11865628
  83         0.03428040
  84         0.05642328
  85         0.00000000
  86         0.00666702
  87         0.00575350
  88        -0.00000000
  89         0.00713848
  90         0.00811286
  91        -0.00905023
  92        -0.00100811
  93        -0.00000000
  94         0.00000000
  95         0.03787375
  96         0.00345813
  97         0.03787389
  98         0.00345816
Sym=     8a  
Ene=    -1.0210
Spin= Alpha
Occup=    2.00000
   1         0.08382863
   2        -0.16494434
   3        -0.11431278
   4        -0.07252818
   5         0.08504063
   6         0.00000000
   7        -0.01229776
   8        -0.00999204
   9        -0.00000000
  10         0.00797381
  11        -0.01417906
  12         0.00636342
  13         0.00538330
  14        -0.00000000
  15        -0.00000000
  16        -0.08379397
  17         0.16487776
  18         0.11425755
  19        -0.07253507
  20        -0.08503722
  21        -0.00000000
  22        -0.01229984
  23         0.00999010
  24         0.00000000
  25        -0.00797653
  26         0.01417613
  27        -0.00636046
  28         0.00538317
  29        -0.00000000
  30         0.00000000
  31         0.12839127
  32        -0.24768744
  33        -0.18904198
  34         0.06505419
  35        -0.02109115
  36        -0.00000000
  37         0.01506603
  38        -0.00158747
  39        -0.00000000
  40         0.00475465
  41        -0.01357932
  42         0.00997341
  43         0.00058588
  44        -0.00000000
  45        -0.00000000
  46        -0.12838643
  47         0.24767830
  48         0.18903632
  49         0.06505286
  50         0.02104668
  51        -0.00000000
  52         0.01506654
  53         0.00158461
  54        -0.00000000
  55        -0.00475418
  56         0.01357940
  57        -0.00997319
  58         0.00058218
  59         0.00000000
  60         0.00000000
  61         0.03969795
  62        -0.00042140
  63        -0.03972038
  64         0.00041710
  65         0.06564614
  66        -0.12905094
  67        -0.09237516
  68        -0.07176285
  69        -0.06812170
  70        -0.00000000
  71        -0.01112797
  72        -0.00155277
  73         0.00000000
  74         0.00509310
  75        -0.01314267
  76         0.00561739
  77        -0.00537427
  78         0.00000000
  79        -0.00000000
  80        -0.06568104
  81         0.12911894
  82         0.09243035
  83        -0.07174513
  84         0.06811695
  85         0.00000000
  86        -0.01112643
  87         0.00154940
  88        -0.00000000
  89        -0.00508960
  90         0.01314388
  91        -0.00562024
  92        -0.00537360
  93         0.00000000
  94         0.00000000
  95        -0.03513145
  96        -0.00519933
  97         0.03515414
  98         0.00520330
Sym=     9a  
Ene=    -1.0185
Spin= Alpha
Occup=    2.00000
   1         0.10864668
   2        -0.20819618
   3        -0.17331460
   4         0.02273733
   5         0.00996522
   6        -0.00000000
   7         0.00699886
   8        -0.00611002
   9         0.00000000
  10        -0.00861965
  11        -0.00926371
  12         0.00918068
  13         0.00029205
  14         0.00000000
  15        -0.00000000
  16         0.10867332
  17        -0.20824835
  18        -0.17335083
  19        -0.02271419
  20         0.00999261
  21         0.00000000
  22        -0.00699495
  23        -0.00611307
  24         0.00000000
  25        -0.00861714
  26        -0.00926825
  27         0.00918266
  28        -0.00029379
  29        -0.00000000
  30        -0.00000000
  31         0.01555354
  32        -0.02935104
  33        -0.01801767
  34         0.00466421
  35        -0.13774222
  36        -0.00000000
  37        -0.00161078
  38        -0.00871011
  39        -0.00000000
  40         0.00142889
  41         0.00024495
  42         0.00075517
  43         0.01149815
  44        -0.00000000
  45        -0.00000000
  46         0.01559470
  47        -0.02943044
  48        -0.01807838
  49        -0.00468507
  50        -0.13774877
  51         0.00000000
  52         0.00160595
  53        -0.00871058
  54        -0.00000000
  55         0.00143040
  56         0.00024063
  57         0.00075836
  58        -0.01149833
  59         0.00000000
  60        -0.00000000
  61        -0.07049225
  62        -0.01376494
  63        -0.07047978
  64        -0.01376510
  65        -0.10873234
  66         0.21166427
  67         0.17216509
  68        -0.05640152
  69        -0.01622677
  70         0.00000000
  71        -0.00508922
  72        -0.01091974
  73         0.00000000
  74         0.01102857
  75         0.00373954
  76        -0.00881765
  77        -0.00217026
  78         0.00000000
  79         0.00000000
  80        -0.10871134
  81         0.21162310
  82         0.17213563
  83         0.05642454
  84        -0.01624877
  85        -0.00000000
  86         0.00509283
  87        -0.01092030
  88        -0.00000000
  89         0.01103018
  90         0.00373531
  91        -0.00881587
  92         0.00217200
  93        -0.00000000
  94         0.00000000
  95         0.07106745
  96         0.01252209
  97         0.07105628
  98         0.01252046
Sym=    10a  
Ene=    -0.8509
Spin= Alpha
Occup=    2.00000
   1         0.08863730
   2        -0.17848142
   3        -0.16113125
   4        -0.08971598
   5         0.01041399
   6         0.00000000
   7        -0.03085735
   8        -0.03146902
   9        -0.00000000
  10         0.00572260
  11        -0.01255079
  12         0.00653933
  13         0.00187073
  14        -0.00000000
  15         0.00000000
  16        -0.08863747
  17         0.17848152
  18         0.16113141
  19        -0.08971546
  20        -0.01041500
  21        -0.00000000
  22        -0.03085711
  23         0.03146865
  24         0.00000000
  25        -0.00572257
  26         0.01255081
  27        -0.00653931
  28         0.00187075
  29        -0.00000000
  30        -0.00000000
  31        -0.00591021
  32         0.01367936
  33         0.00640698
  34        -0.00869874
  35        -0.22200846
  36        -0.00000000
  37        -0.00238358
  38        -0.03130543
  39        -0.00000000
  40         0.00062606
  41         0.00248200
  42        -0.00076736
  43         0.01101427
  44        -0.00000000
  45         0.00000000
  46         0.00590979
  47        -0.01367857
  48        -0.00640654
  49        -0.00869810
  50         0.22200861
  51         0.00000000
  52        -0.00238348
  53         0.03130542
  54         0.00000000
  55        -0.00062601
  56        -0.00248204
  57         0.00076734
  58         0.01101430
  59        -0.00000000
  60         0.00000000
  61         0.08466745
  62         0.01798613
  63        -0.08466789
  64        -0.01798631
  65        -0.09548682
  66         0.19326458
  67         0.17030942
  68         0.11745011
  69         0.01480415
  70         0.00000000
  71         0.05076744
  72        -0.02656005
  73         0.00000000
  74        -0.00469986
  75         0.01359120
  76        -0.00729508
  77         0.00083500
  78        -0.00000000
  79         0.00000000
  80         0.09548679
  81        -0.19326467
  82        -0.17030956
  83         0.11745065
  84        -0.01480326
  85        -0.00000000
  86         0.05076765
  87         0.02656036
  88         0.00000000
  89         0.00469989
  90        -0.01359118
  91         0.00729510
  92         0.00083498
  93         0.00000000
  94        -0.00000000
  95         0.09646207
  96         0.02304405
  97        -0.09646257
  98        -0.02304428
Sym=    11a  
Ene=    -0.7966
Spin= Alpha
Occup=    2.00000
   1        -0.04744445
   2         0.09499408
   3         0.08829974
   4        -0.05598184
   5         0.20285595
   6         0.00000000
   7        -0.01953808
   8         0.08152322
   9        -0.00000000
  10         0.00701111
  11         0.00691023
  12        -0.00387722
  13         0.00674533
  14        -0.00000000
  15        -0.00000000
  16        -0.04744463
  17         0.09499434
  18         0.08829986
  19         0.05598149
  20         0.20285441
  21         0.00000000
  22         0.01953798