   This run of MOLCAS is using the pymolcas driver

                             OPE
                             OPE          NMOL  CASOP  ENMOLC A   SO
                 OPE        NMOLC        AS  OP EN  MO LC     AS  OP
                OPENM       OL CA        SO  PE NM  OL CA     SOP EN
                OP EN      MO   LC       AS  OP ENMOL  CASO   PENMOL
                OP  EN     MO   LC       AS  OP EN     MO     LC ASO
               OP   E  NMOL  C  AS       OP  EN MO     LC     AS  OP
               OP  E   NMO   LC AS        OPEN  MO     LCASOP EN   M
               O  PEN   MO  LCA  SO
            OPE   NMO   L   CAS    OP
        OPENMOL  CASOP     ENMOL   CASOPE
     OPENMOLCA   SOPENMOLCASOPEN   MOLCASOPE
    OPENMOLCAS   OP           EN   MOL    CAS
    OPENMOLCAS       OP  ENM        O     LCA
    OPENMOLCAS    OPEN  MOLCASO     P  E  NMO
    OPENMOLCAS     OP               E  N  MOL
    OPENMOLCA   SO           PENM   O  L  CAS    OPEN    MO    LCAS
    OPENMOLCA   SOP           ENM   O  L  CAS   OP  EN  MOLC  AS   O
    OPENMOLCA   SOPE           NM      O  LCA   S      OP  EN MO
    OPENMOLC                AS         O  PEN   M      OL  CA  SOPE
    OPENMO        LCASOPE  NMOL        C  ASO   P      ENMOLC     AS
    OPE     NMO      LCA  SO     P     E   NM   OL  CA SO  PE N   MO
          OPENMOLCA            SOPE   NMO        LCAS  O    P  ENMO
     OPENMOLCASOPENMOLCASOPENMOLCASOPENMOLCA
        OPENMOLCASOPENMOLCASOPENMOLCASOPE
            OPENMOLCASOPENMOLCASOPENM
               OPENMOLCASOPENMOLCA        version: 24.02
                   OPENMOLCASO
                       OPE                tag: 428-g03afa2e9a

 OpenMolcas is free software; you can redistribute it and/or modify it
 under the terms of the GNU Lesser General Public License version 2.1.
 OpenMolcas is distributed in the hope that it will be useful, but it
 is provided "as is" and without any express or implied warranties.
 For more details see the full text of the license in the file
 LICENSE or in <http://www.gnu.org/licenses/>.

                 Copyright (C) The OpenMolcas Authors
           For the author list and the recommended citation,
                   consult the file CONTRIBUTORS.md

           *************************************************
           * pymolcas version py2.28                       *
           *   build c4a6d18ded8cb6cad61d2372a9abd97c      *
           *   (after the EMIL interpreter by V. Veryazov) *
           *************************************************

configuration info
------------------
Host name: DESKTOP-ET1S6F4 (Linux)
C Compiler ID: GNU
C flags: -std=gnu99 -fopenmp
Fortran Compiler ID: GNU
Fortran flags: -fno-aggressive-loop-optimizations -cpp -fdefault-integer-8 -fopenmp
Definitions: _WARNING_WORKAROUND_;_MOLCAS_;_I8_;_LINUX_
Parallel: OFF (GA=OFF)


   ----------------------------------------------------------------------
  |
  |           Project: ts_irc
  |    Submitted from: /home/kenya/molcas_test/exercise_1
  |      Scratch area: /tmp/ts_irc
  |   Save outputs to: /home/kenya/molcas_test/exercise_1
  |            Molcas: /home/kenya/OpenMolcas/builds/gnu_dev_omp
  |
  | Scratch area is empty
  |
  |    MOLCAS_DRIVER = /home/kenya/OpenMolcas/builds/gnu_dev_omp/pymolcas
  |    MOLCAS_NPROCS = 1
  |    MOLCAS_SOURCE = /home/kenya/OpenMolcas
  | MOLCAS_STRUCTURE = 0
  |
   ----------------------------------------------------------------------

++ ---------   Input file   ---------

&GATEWAY
  Coord = $CurrDir/ts_sp.Opt.xyz
  Basis = 6-31G*
  Group = FULL
  NoCD

>>> COPY $CurrDir/ts_sp.RasOrb INPORB

>>> EXPORT MOLCAS_MAXITER = 500

>>> DO WHILE

  &SEWARD

  &RASSCF
    LUMORB
    NACTEL = 12 0 0
    INACTIVE = 7 7 0 0
    RAS2 = 3 3 3 3

  &SLAPAF
    IRC
    Reaction vector
    6.614710465262E-01  5.210258743735E-04 0.0d+00
   -3.477663196298E-02  2.713665646421E-02 0.0d+00
    9.082644285421E-02  2.204737697925E-01 0.0d+00
   -3.565183807632E-02 -4.456272182659E-02 0.0d+00
    5.315102850480E-03 -1.914954160343E-02 0.0d+00
    Iterations = 200
    nirc = 100

>>> END DO

-- ----------------------------------

--- Start Module: gateway at Thu Jul 11 02:47:59 2024 ---

()()()()()()()()()()()()()()()()()()()()()()()()()()()()()()()()()()()()()()()()()()()()()()()()()()

                                              &GATEWAY

                                   only a single process is used
                       available to each process: 2.0 GB of memory, 1 thread
                                            pid: 734374
()()()()()()()()()()()()()()()()()()()()()()()()()()()()()()()()()()()()()()()()()()()()()()()()()()

      Found SYMMETRY generators: xz z

++    Symmetry information:
      ---------------------

                    --- Group Generators ---
                    Rotation around the y-axis  
                    Reflection in the xy-plane  

                    Character Table for C2v

                             E   C2(y) s(xy) s(yz)
                    a1       1     1     1     1  y
                    b1       1    -1     1    -1  x, xy, Rz
                    a2       1     1    -1    -1  xz, Ry, I
                    b2       1    -1    -1     1  z, yz, Rx
--


++    Basis set information:
      ----------------------


      Basis set label: C.6-31G**....

      Electronic valence basis set:
      ------------------
      Associated Effective Charge   6.000000 au
      Associated Actual Charge      6.000000 au
      Nuclear Model: Point charge

      Shell  nPrim  nBasis  Cartesian Spherical Contaminant
         s      10       3        X                  
         p       4       2        X                  
         d       1       1        X                  


      Basis set label: H.6-31G....

      Electronic valence basis set:
      ------------------
      Associated Effective Charge   1.000000 au
      Associated Actual Charge      1.000000 au
      Nuclear Model: Point charge

      Shell  nPrim  nBasis  Cartesian Spherical Contaminant
         s       4       2        X                  


      Basis set label: C.6-31G**....

      Electronic valence basis set:
      ------------------
      Associated Effective Charge   6.000000 au
      Associated Actual Charge      6.000000 au
      Nuclear Model: Point charge

      Shell  nPrim  nBasis  Cartesian Spherical Contaminant
         s      10       3        X                  
         p       4       2        X                  
         d       1       1        X                  


      Basis set label: H.6-31G....

      Electronic valence basis set:
      ------------------
      Associated Effective Charge   1.000000 au
      Associated Actual Charge      1.000000 au
      Nuclear Model: Point charge

      Shell  nPrim  nBasis  Cartesian Spherical Contaminant
         s       4       2        X                  
--


++    Molecular structure info:
      -------------------------

                    ************************************************ 
                    **** Cartesian Coordinates / Bohr, Angstrom **** 
                    ************************************************ 

     Center  Label                x              y              z                     x              y              z
        1      C1               1.817356       2.285437       0.000000              0.961703       1.209401       0.000000
        2      C1              -1.817356       2.285437       0.000000             -0.961703       1.209401       0.000000
        3      C2               2.632880       0.004360       0.000000              1.393260       0.002307       0.000000
        4      C2              -2.632880       0.004360       0.000000             -1.393260       0.002307       0.000000
        5      H3              -2.480575       4.185748       0.000000             -1.312664       2.215002       0.000000
        6      H3               2.480575       4.185748       0.000000              1.312664       2.215002       0.000000
        7      C4               1.327387      -2.328564       0.000000              0.702423      -1.232223       0.000000
        8      C4              -1.327387      -2.328564       0.000000             -0.702423      -1.232223       0.000000
        9      H5               2.307121      -4.104042       0.000000              1.220876      -2.171765       0.000000
       10      H5              -2.307121      -4.104042       0.000000             -1.220876      -2.171765       0.000000

                    *************************************** 
                    *    InterNuclear Distances / Bohr    * 
                    *************************************** 

               1 C1            2 C1            3 C2            4 C2            5 H3            6 H3    
    1 C1       0.000000
    2 C1       3.634711        0.000000
    3 C2       2.422477        5.000791        0.000000
    4 C2       5.000791        2.422477        5.265760        0.000000
    5 H3       4.699297        2.012720        6.605409        4.184161        0.000000
    6 H3       2.012720        4.699297        4.184161        6.605409        4.961150        0.000000
    7 C4       4.639944        5.583764        2.673359        4.596330        7.545651        6.615596
    8 C4       5.583764        4.639944        4.596330        2.673359        6.615596        7.545651
    9 H5       6.408222        7.605048        4.121296        6.425152        9.573017        8.291604
   10 H5       7.605048        6.408222        6.425152        4.121296        8.291604        9.573017

               7 C4            8 C4            9 H5           10 H5    
    7 C4       0.000000
    8 C4       2.654775        0.000000
    9 H5       2.027856        4.044994        0.000000
   10 H5       4.044994        2.027856        4.614243        0.000000

                    ******************************************* 
                    *    InterNuclear Distances / Angstrom    * 
                    ******************************************* 

               1 C1            2 C1            3 C2            4 C2            5 H3            6 H3    
    1 C1       0.000000
    2 C1       1.923406        0.000000
    3 C2       1.281919        2.646304        0.000000
    4 C2       2.646304        1.281919        2.786520        0.000000
    5 H3       2.486761        1.065086        3.495432        2.214163        0.000000
    6 H3       1.065086        2.486761        2.214163        3.495432        2.625328        0.000000
    7 C4       2.455353        2.954801        1.414680        2.432273        3.992986        3.500823
    8 C4       2.954801        2.455353        2.432273        1.414680        3.500823        3.992986
    9 H5       3.391085        4.024418        2.180896        3.400044        5.065822        4.387728
   10 H5       4.024418        3.391085        3.400044        2.180896        4.387728        5.065822

               7 C4            8 C4            9 H5           10 H5    
    7 C4       0.000000
    8 C4       1.404846        0.000000
    9 H5       1.073095        2.140518        0.000000
   10 H5       2.140518        1.073095        2.441752        0.000000

                    ************************************** 
                    *    Valence Bond Angles / Degree    * 
                    ************************************** 
                          Atom centers                 Phi
                      3 C2       1 C1       6 H3       141.09
                      4 C2       2 C1       5 H3       141.09
                      1 C1       3 C2       7 C4       131.10
                      2 C1       4 C2       8 C4       131.10
                      3 C2       7 C4       8 C4       119.23
                      3 C2       7 C4       9 H5       121.88
                      8 C4       7 C4       9 H5       118.89
                      4 C2       8 C4       7 C4       119.23
                      4 C2       8 C4      10 H5       121.88
                      7 C4       8 C4      10 H5       118.89

           ***************************************************************
           *              Valence Dihedral Angles / Degree               *
           ***************************************************************
                    Atom centers                       Phi1     Phi2     Theta 
           6 H3       1 C1       3 C2       7 C4        141.09   131.10  -180.00
           5 H3       2 C1       4 C2       8 C4        141.09   131.10  -180.00
           1 C1       3 C2       7 C4       8 C4        131.10   119.23    -0.00
           1 C1       3 C2       7 C4       9 H5        131.10   121.88  -180.00
           2 C1       4 C2       8 C4       7 C4        131.10   119.23     0.00
           2 C1       4 C2       8 C4      10 H5        131.10   121.88  -180.00
           3 C2       7 C4       8 C4       4 C2        119.23   119.23    -0.00
           3 C2       7 C4       8 C4      10 H5        119.23   118.89  -180.00
           9 H5       7 C4       8 C4      10 H5        118.89   118.89    -0.00
           4 C2       8 C4       7 C4       9 H5        119.23   118.89  -180.00
--


            Nuclear Potential Energy            180.01701582 au

--- Stop Module: gateway at Thu Jul 11 02:47:59 2024 /rc=_RC_ALL_IS_WELL_ ---
*** files: xmldump
    saved to directory /home/kenya/molcas_test/exercise_1

>>> COPY /home/kenya/molcas_test/exercise_1/ts_sp.RasOrb INPORB

>>> EXPORT MOLCAS_MAXITER = 500

--- Start Module: seward at Thu Jul 11 02:47:59 2024 ---

()()()()()()()()()()()()()()()()()()()()()()()()()()()()()()()()()()()()()()()()()()()()()()()()()()

                                              &SEWARD

                                   only a single process is used
                       available to each process: 2.0 GB of memory, 1 thread
                                            pid: 734377
()()()()()()()()()()()()()()()()()()()()()()()()()()()()()()()()()()()()()()()()()()()()()()()()()()

               SEWARD will generate:
                  Multipole Moment integrals up to order  2
                  Kinetic Energy integrals
                  Nuclear Attraction integrals (point charge)
                  One-Electron Hamiltonian integrals
                  Velocity integrals
                  Orbital angular momentum around ( 0.0000 -0.0101  0.0000 )
                  Velocity quadrupole around ( 0.0000 -0.0101  0.0000 )
                  Two-Electron Repulsion integrals

                   Integrals are discarded if absolute value <: 1.00E-14
                   Integral cutoff threshold is set to       <: 1.00E-16

                    Unitary symmetry adaptation


            Nuclear Potential Energy            180.01701582 au


      Basis set specifications :
      Symmetry species         a1   b1   a2   b2 
      Basis functions           37   37   12   12


      Input file to MOLDEN was generated!

--- Stop Module: seward at Thu Jul 11 02:48:00 2024 /rc=_RC_ALL_IS_WELL_ ---
*** files: ts_irc.GssOrb ts_irc.guessorb.molden xmldump
    saved to directory /home/kenya/molcas_test/exercise_1
--- Module seward spent 1 second ---

--- Start Module: rasscf at Thu Jul 11 02:48:00 2024 ---

()()()()()()()()()()()()()()()()()()()()()()()()()()()()()()()()()()()()()()()()()()()()()()()()()()

                                              &RASSCF

                                   only a single process is used
                       available to each process: 2.0 GB of memory, 1 thread
                                            pid: 734408
()()()()()()()()()()()()()()()()()()()()()()()()()()()()()()()()()()()()()()()()()()()()()()()()()()

 ###############################################################################
 ###############################################################################
 ###                                                                         ###
 ###                                                                         ###
 ###    WARNING: Had to guess the spin.                                      ###
 ###                                                                         ###
 ###                                                                         ###
 ###############################################################################
 ###############################################################################
  Warning: no input and no reliable source
  for the spin multiplicity.
  Guess ISPIN=                    1

      Header of the ONEINT file:
      --------------------------
      
      Integrals generated by Gateway/Seward, Thu Jul 11 02:47:59 2024


      OrdInt status: non-squared


      Cartesian coordinates in Angstrom:
      -----------------------------------------------------
      No.  Label        X            Y            Z        
      -----------------------------------------------------
       1   C1         0.96170313   1.20940119   0.00000000
       2   C2         1.39325997   0.00230710   0.00000000
       3   H3        -1.31266376   2.21500249   0.00000000
       4   C4         0.70242313  -1.23222326   0.00000000
       5   H5         1.22087610  -2.17176534   0.00000000
       6   C1        -0.96170313   1.20940119   0.00000000
       7   C2        -1.39325997   0.00230710   0.00000000
       8   H3         1.31266376   2.21500249   0.00000000
       9   C4        -0.70242313  -1.23222326   0.00000000
      10   H5        -1.22087610  -2.17176534   0.00000000
      -----------------------------------------------------
      Nuclear repulsion energy =  180.01701582

++    Wave function specifications:
      -----------------------------

      Number of closed shell electrons          28
      Number of electrons in active shells      12
      Max number of holes in RAS1 space          0
      Max nr of electrons in RAS3 space          0
      Number of inactive orbitals               14
      Number of active orbitals                 12
      Number of secondary orbitals              72
      Spin quantum number                      0.0
      State symmetry                             1
--

++    Orbital specifications:
      -----------------------

      Symmetry species                           1   2   3   4
                                                a1  b1  a2  b2
      Frozen orbitals                            0   0   0   0
      Inactive orbitals                          7   7   0   0
      Active orbitals                            3   3   3   3
      RAS1 orbitals                              0   0   0   0
      RAS2 orbitals                              3   3   3   3
      RAS3 orbitals                              0   0   0   0
      Secondary orbitals                        27  27   9   9
      Deleted orbitals                           0   0   0   0
      Number of basis functions                 37  37  12  12
--

++    CI expansion specifications:
      ----------------------------

      Number of CSFs                         56928
      Number of determinants                107334
      Number of root(s) required                 1
      Root chosen for geometry opt.              1
      CI root used                               1
         
      highest root included in the CI            1
      max. size of the explicit Hamiltonian    200
--

++    Optimization specifications:
      ----------------------------

      RASSCF algorithm: Conventional
      Maximum number of macro iterations       200
      Maximum number of SX iterations          100
      Threshold for RASSCF energy            1.000E-08
      Threshold for max MO rotation          1.000E-01
      Threshold for max BLB element          1.000E-04
      Level shift parameter                  5.000E-01
      Make Quasi-Newton update
--

      The MO-coefficients are taken from the file:
      INPORB                                                                                                                                                                                                                                                          
      Title: RASSCF average (pseudo-natural) orbitals                                      

      Total molecular charge    0.00

      ************************************************************************************************************************
      *                                                                                                                      *
      *                                            Wave function control section                                             *
      *                                                                                                                      *
      ************************************************************************************************************************


                                         RASSCF iterations: Energy and convergence statistics
                                         ----------------------------------------------------

      Iter CI   SX   CI       RASSCF       Energy    max ROT     max BLB   max BLB  Level Ln srch  Step   QN   Walltime
          iter iter root      energy       change     param      element    value   shift minimum  type update hh:mm:ss
 Nr of preliminary CI iterations:   6
        1   1    6    1  -229.50899917    0.00E+00   5.27E-04    4  10 1  3.48E-04*  0.03   0.00    SX    NO    0:00:02
        2   2    5    1  -229.50901742   -1.82E-05*  8.44E-05    8  15 2 -4.88E-05   0.03   0.00    SX    NO    0:00:01
        3   1    4    1  -229.50901744   -2.36E-08*  3.27E-05    4   9 2 -1.01E-05   0.03   0.00    SX    NO    0:00:00
        4   9    5    1  -229.50902906   -1.16E-05*  3.93E-04    4  10 1 -2.40E-04*  0.03   0.00    SX    NO    0:00:02
        5   3    5    1  -229.50902950   -4.42E-07* -1.66E-04    4  10 1 -7.47E-05   0.03   1.42    LS   YES    0:00:01
        6   4    5    1  -229.50902955   -4.65E-08* -6.72E-05    6  13 1 -5.51E-05   0.03   1.03    QN   YES    0:00:01
        7   1    4    1  -229.50902958   -3.24E-08*  3.80E-05    8  15 1 -1.57E-05   0.03   1.22    QN   YES    0:00:01
        8   3    4    1  -229.50902959   -5.87E-09   1.49E-05    6  10 1 -5.83E-06   0.03   1.00    QN   YES    0:00:01
      Convergence after  8 iterations
        9   1    4    1  -229.50902959   -5.64E-10   1.49E-05    7  23 1  3.30E-06   0.03   1.00    QN   YES    0:00:01

      ************************************************************************************************************************
                                                      Wave function printout:
                       occupation of active orbitals, and spin coupling of open shells (u,d: Spin up or down)
      ************************************************************************************************************************

      Note: transformation to natural orbitals
      has been made, which may change the order of the CSFs.

      printout of CI-coefficients larger than  0.05 for root  1
      energy=    -229.509030
      conf/sym  111222333444     Coeff  Weight
         11436  222 000 200 220  -0.29491 0.08697
         11507  220 200 220 200  -0.12485 0.01559
         11514  220 200 2ud ud0   0.09605 0.00923
         11528  220 200 200 220   0.85308 0.72774
         11550  220 200 ud0 2ud   0.10136 0.01027
         11568  220 200 u0u d2d   0.05398 0.00291
         11597  220 200 000 222  -0.06972 0.00486
         11621  2ud 200 ud0 220   0.06064 0.00368
         12172  2ud ud0 200 220   0.13016 0.01694
         12632  2uu dd0 200 220  -0.06929 0.00480
         13460  200 220 200 220  -0.07444 0.00554
         18060  020 202 200 220  -0.05147 0.00265
         19936  22u d00 u00 22d   0.08564 0.00733
         20382  2u0 2d0 2u0 2d0   0.05430 0.00295
         35056  22u u00 d00 22d   0.07382 0.00545

      Natural orbitals and occupation numbers for root  1
      sym 1:   1.979084   1.928883   0.274560
      sym 2:   1.730777   0.064784   0.019379
      sym 3:   1.914183   0.116931   0.048545
      sym 4:   1.947450   1.892080   0.083343

      ************************************************************************************************************************
      *                                                                                                                      *
      *                                                    Final results                                                     *
      *                                                                                                                      *
      ************************************************************************************************************************


++    Wave function specifications:
      -----------------------------

      Number of closed shell electrons          28
      Number of electrons in active shells      12
      Max number of holes in RAS1 space          0
      Max nr of electrons in RAS3 space          0
      Number of inactive orbitals               14
      Number of active orbitals                 12
      Number of secondary orbitals              72
      Spin quantum number                      0.0
      State symmetry                             1
--

++    Orbital specifications:
      -----------------------

      Symmetry species                           1   2   3   4
                                                a1  b1  a2  b2
      Frozen orbitals                            0   0   0   0
      Inactive orbitals                          7   7   0   0
      Active orbitals                            3   3   3   3
      RAS1 orbitals                              0   0   0   0
      RAS2 orbitals                              3   3   3   3
      RAS3 orbitals                              0   0   0   0
      Secondary orbitals                        27  27   9   9
      Deleted orbitals                           0   0   0   0
      Number of basis functions                 37  37  12  12
--

++    CI expansion specifications:
      ----------------------------

      Number of CSFs                         56928
      Number of determinants                107334
      Number of root(s) required                 1
      CI root used                               1
      highest root included in the CI            1
      Root passed to geometry opt.               1
--

++    Final optimization conditions:
      ------------------------------

      Average CI energy                            -229.50902959
      RASSCF energy for state  1                   -229.50902959
      Super-CI energy                                -0.00000000
      RASSCF energy change                            0.00000000
      Max change in MO coefficients               3.979E-05
      Max non-diagonal density matrix element     1.492E-05
      Maximum BLB matrix element                  3.303E-06
      (orbital pair   7,  23 in symmetry   1)
      Norm of electronic gradient            1.742E-05
--


      Final state energy(ies):
      ------------------------

::    RASSCF root number  1 Total energy:   -229.50902959

++    Molecular orbitals:
      -------------------

      Pseudonatural active orbitals and approximate occupation numbers




      Molecular orbitals for symmetry species 1: a1 


      Orbital                 1         2         3         4         5         6         7         8         9        10
      Energy           -11.2434  -11.2397  -11.2235   -1.0821   -0.9106   -0.7415   -0.6285   -0.7215    0.0243   -0.0719
      Occ. No.           2.0000    2.0000    2.0000    2.0000    2.0000    2.0000    2.0000    1.9791    1.9289    0.2746

     1 C1     1s         0.0041    0.9931   -0.0726   -0.1318    0.1231   -0.0626   -0.0158    0.0021    0.0666    0.0023
     2 C1     2s        -0.0000    0.0268   -0.0022    0.2463   -0.2337    0.1224    0.0280   -0.0083   -0.1322   -0.0119
     3 C1     *s         0.0000   -0.0099    0.0070    0.1830   -0.2112    0.1253    0.0399    0.0043   -0.1729   -0.1020
     4 C1     2px        0.0001    0.0011   -0.0012    0.0357   -0.0877    0.0539    0.0166   -0.0144    0.4498    0.3401
     5 C1     *px        0.0001   -0.0002   -0.0007    0.0129   -0.0447    0.0273   -0.0027   -0.0156    0.2622    0.2541
     6 C1     2py        0.0000    0.0001    0.0003   -0.1125    0.0039    0.2885   -0.3283   -0.0039    0.0087   -0.0581
     7 C1     *py       -0.0002    0.0007   -0.0037   -0.0129   -0.0097    0.1148   -0.1341   -0.0068    0.0080    0.0591
     8 C1     *200      -0.0000   -0.0016   -0.0001   -0.0008   -0.0004    0.0014    0.0006    0.0002   -0.0097   -0.0199
     9 C1     *110      -0.0001   -0.0001    0.0002   -0.0024    0.0017    0.0098   -0.0158   -0.0007   -0.0094    0.0114
    10 C1     *020       0.0001   -0.0007   -0.0000    0.0102   -0.0100    0.0092   -0.0080   -0.0009    0.0032    0.0188
    11 C1     *002      -0.0001   -0.0015    0.0000   -0.0064    0.0061   -0.0030   -0.0002    0.0004    0.0015    0.0005
    12 C2     1s         0.0245    0.0712    0.9931   -0.1653   -0.0076    0.0688   -0.0045   -0.0426   -0.0702    0.0539
    13 C2     2s         0.0005    0.0017    0.0271    0.3169    0.0180   -0.1365    0.0051    0.0931    0.1519   -0.1549
    14 C2     *s         0.0031    0.0038   -0.0158    0.2028    0.0222   -0.0690   -0.0294    0.1056    0.1815   -0.1805
    15 C2     2px        0.0001    0.0006   -0.0018   -0.0841   -0.0330    0.1067    0.0253    0.0467    0.2201   -0.5880
    16 C2     *px       -0.0008   -0.0001    0.0032   -0.0118   -0.0168    0.0185    0.0088    0.0112    0.1189   -0.4200
    17 C2     2py        0.0002   -0.0003   -0.0000    0.0339   -0.2720   -0.0108    0.3283   -0.0902    0.0494    0.0944
    18 C2     *py       -0.0013    0.0021   -0.0009   -0.0124   -0.0322    0.0092    0.0680   -0.0374    0.0000    0.0464
    19 C2     *200      -0.0002   -0.0003   -0.0014   -0.0035    0.0012   -0.0038   -0.0026   -0.0061   -0.0074   -0.0169
    20 C2     *110      -0.0001    0.0001    0.0000    0.0002    0.0114    0.0026   -0.0248   -0.0067    0.0151    0.0090
    21 C2     *020      -0.0003   -0.0001   -0.0006    0.0111    0.0032    0.0003    0.0010    0.0047    0.0062    0.0190
    22 C2     *002      -0.0001   -0.0002   -0.0014   -0.0071   -0.0011    0.0033   -0.0003   -0.0002    0.0001    0.0023
    23 H3     1s         0.0000   -0.0004   -0.0001    0.0580   -0.1151    0.2149   -0.1722   -0.0100    0.0483    0.0824
    24 H3     *s         0.0002    0.0022    0.0006    0.0097   -0.0420    0.1147   -0.1238   -0.0045    0.0637    0.0583
    25 C4     1s         0.9950   -0.0059   -0.0247   -0.0876   -0.1398   -0.0491    0.0115    0.1314   -0.0139   -0.0064
    26 C4     2s         0.0278   -0.0004   -0.0006    0.1653    0.2660    0.0937   -0.0267   -0.2678    0.0297    0.0135
    27 C4     *s        -0.0085    0.0006    0.0043    0.0936    0.2281    0.1070   -0.0332   -0.1756    0.0340    0.0043
    28 C4     2px       -0.0002    0.0002   -0.0007    0.0872    0.1523    0.0619   -0.0091    0.5415   -0.0612    0.1771
    29 C4     *px       -0.0011    0.0002   -0.0003    0.0362    0.0908    0.0453   -0.0047    0.1861   -0.0345    0.1293
    30 C4     2py        0.0003   -0.0001   -0.0004    0.0884   -0.0062   -0.2659   -0.3486   -0.0080    0.0196    0.0620
    31 C4     *py       -0.0008    0.0004    0.0024    0.0120   -0.0140   -0.1031   -0.1437   -0.0106    0.0132   -0.0258
    32 C4     *200      -0.0013   -0.0000   -0.0002    0.0016    0.0044    0.0027   -0.0010   -0.0134    0.0038   -0.0095
    33 C4     *110       0.0000    0.0000   -0.0004    0.0042   -0.0021   -0.0106   -0.0125    0.0049    0.0061   -0.0096
    34 C4     *020      -0.0012    0.0000   -0.0003    0.0086    0.0096    0.0030    0.0056    0.0129   -0.0053    0.0122
    35 C4     *002      -0.0014   -0.0000   -0.0001   -0.0050   -0.0070   -0.0021    0.0001    0.0044    0.0002   -0.0002
    36 H5     1s        -0.0003   -0.0000    0.0000    0.0505    0.1520    0.1840    0.1713    0.0654   -0.0342    0.0563
    37 H5     *s         0.0017    0.0001    0.0006    0.0187    0.0656    0.0975    0.1222    0.0879   -0.0457    0.0378



      Molecular orbitals for symmetry species 2: b1 


      Orbital                 1         2         3         4         5         6         7         8         9        10
      Energy           -11.2423  -11.2397  -11.2236   -1.0057   -0.8392   -0.6707   -0.5448   -0.2615   -0.0007    0.0012
      Occ. No.           2.0000    2.0000    2.0000    2.0000    2.0000    2.0000    2.0000    1.7308    0.0648    0.0194

     1 C1     1s         0.0104    0.9934   -0.0697   -0.1384    0.1159    0.0566   -0.0179    0.0721   -0.0941    0.0031
     2 C1     2s         0.0003    0.0275   -0.0024    0.2683   -0.2271   -0.1130    0.0365   -0.1714    0.3314    0.0038
     3 C1     *s        -0.0027   -0.0161    0.0109    0.1882   -0.2155   -0.1171    0.0296   -0.1470    0.4779    0.1190
     4 C1     2px        0.0000    0.0005   -0.0005    0.0775   -0.0968   -0.0556    0.0389    0.2162   -0.7846   -0.0683
     5 C1     *px        0.0007    0.0019   -0.0012    0.0161   -0.0374   -0.0297    0.0181    0.1811   -0.5436   -0.0709
     6 C1     2py       -0.0000    0.0001    0.0002   -0.1307   -0.0024   -0.3742   -0.2400    0.0661    0.0112    0.0289
     7 C1     *py        0.0017    0.0028   -0.0055    0.0207   -0.0298   -0.1664   -0.0979   -0.1084   -0.0065   -0.0711
     8 C1     *200       0.0000   -0.0014   -0.0001   -0.0064    0.0026    0.0007    0.0013    0.0126    0.0018    0.0044
     9 C1     *110      -0.0000   -0.0001    0.0002   -0.0048    0.0017   -0.0216   -0.0169   -0.0145    0.0127   -0.0027
    10 C1     *020       0.0001   -0.0007   -0.0000    0.0129   -0.0102   -0.0113   -0.0067   -0.0100   -0.0187   -0.0036
    11 C1     *002       0.0000   -0.0012   -0.0000   -0.0056    0.0050    0.0029   -0.0002   -0.0006   -0.0023   -0.0017
    12 C2     1s         0.0274    0.0683    0.9931   -0.1742   -0.0204   -0.0764    0.0299   -0.0740   -0.0214    0.0069
    13 C2     2s         0.0007    0.0013    0.0279    0.3328    0.0443    0.1546   -0.0647    0.1563    0.1210    0.0298
    14 C2     *s         0.0083    0.0075   -0.0208    0.2601    0.0313    0.0602   -0.0740    0.1044    0.0871   -0.2213
    15 C2     2px        0.0002    0.0004   -0.0019   -0.0988   -0.0537   -0.0894    0.0669    0.5065    0.3589    0.1755
    16 C2     *px       -0.0026   -0.0016    0.0050   -0.0389   -0.0267   -0.0045    0.0245    0.4330    0.1976    0.2090
    17 C2     2py        0.0001   -0.0002    0.0000    0.0691   -0.2877    0.0968    0.3362   -0.0487   -0.0857    0.0418
    18 C2     *py       -0.0011    0.0025   -0.0012    0.0067   -0.0382    0.0104    0.0935   -0.0585   -0.0463   -0.0002
    19 C2     *200      -0.0003   -0.0003   -0.0013   -0.0038    0.0017    0.0017   -0.0026   -0.0062    0.0248    0.0143
    20 C2     *110      -0.0002    0.0000    0.0001   -0.0005    0.0140   -0.0100   -0.0220    0.0069   -0.0292    0.0122
    21 C2     *020      -0.0004   -0.0001   -0.0006    0.0118    0.0040   -0.0003    0.0012   -0.0011   -0.0270   -0.0156
    22 C2     *002      -0.0001   -0.0002   -0.0013   -0.0075   -0.0015   -0.0028    0.0007    0.0020   -0.0044    0.0011
    23 H3     1s         0.0001    0.0004   -0.0001   -0.0653    0.1153    0.2683    0.1249    0.0214    0.0436    0.0019
    24 H3     *s         0.0004   -0.0015   -0.0010    0.0019    0.0330    0.1556    0.1044   -0.0356    0.0412   -0.0233
    25 C4     1s         0.9955   -0.0122   -0.0272   -0.0783   -0.1411    0.0522   -0.0089    0.0347    0.0387   -0.1650
    26 C4     2s         0.0281   -0.0003   -0.0008    0.1528    0.2825   -0.1072    0.0115   -0.0893   -0.1078    0.8114
    27 C4     *s        -0.0202   -0.0019    0.0102    0.1112    0.2521   -0.0827    0.0326   -0.0619   -0.1057    1.0262
    28 C4     2px       -0.0001   -0.0000   -0.0002    0.0907    0.1799   -0.0763    0.0082    0.0208    0.0382   -1.0924
    29 C4     *px        0.0034    0.0010   -0.0017    0.0126    0.0843   -0.0596    0.0041    0.0278   -0.0387   -0.5441
    30 C4     2py        0.0004   -0.0001   -0.0002    0.0791    0.0205    0.1631   -0.3967   -0.0450   -0.0724    0.0068
    31 C4     *py       -0.0039   -0.0008    0.0044    0.0045   -0.0293    0.1112   -0.2194    0.0905   -0.0510    0.1467
    32 C4     *200      -0.0007   -0.0000   -0.0004   -0.0025   -0.0024   -0.0004    0.0001    0.0101    0.0072   -0.0009
    33 C4     *110       0.0001   -0.0001   -0.0004    0.0069   -0.0003    0.0176   -0.0401    0.0072    0.0010   -0.0130
    34 C4     *020      -0.0009    0.0000   -0.0003    0.0100    0.0127   -0.0028    0.0063   -0.0096    0.0009   -0.0656
    35 C4     *002      -0.0013    0.0000   -0.0001   -0.0039   -0.0060    0.0019   -0.0009   -0.0006    0.0005   -0.0113
    36 H5     1s        -0.0003   -0.0001    0.0001    0.0464    0.1498   -0.1542    0.2531   -0.0295    0.0097   -0.0432
    37 H5     *s         0.0010   -0.0002    0.0008    0.0105    0.0437   -0.0751    0.1941    0.0073    0.0212    0.0038



      Molecular orbitals for symmetry species 3: a2 


      Orbital                 1         2         3
      Energy            -0.3580    0.1370    0.4240
      Occ. No.           1.9142    0.1169    0.0485

     1 C1     2pz        0.3638   -0.5240    0.4629
     2 C1     *pz        0.2478   -0.3119    0.2495
     3 C1     *101       0.0140    0.0076   -0.0281
     4 C1     *011      -0.0205    0.0047    0.0080
     5 C2     2pz        0.4339    0.2098   -0.5458
     6 C2     *pz        0.2856    0.1209   -0.3915
     7 C2     *101      -0.0135    0.0074   -0.0332
     8 C2     *011       0.0121   -0.0355   -0.0080
     9 C4     2pz        0.1483    0.5715    0.6328
    10 C4     *pz        0.1051    0.3201    0.3578
    11 C4     *101       0.0130    0.0032   -0.0242
    12 C4     *011       0.0145    0.0115   -0.0046



      Molecular orbitals for symmetry species 4: b2 


      Orbital                 1         2         3
      Energy            -0.4756   -0.3031    0.2546
      Occ. No.           1.9475    1.8921    0.0833

     1 C1     2pz        0.2760   -0.3597   -0.4867
     2 C1     *pz        0.1787   -0.2906   -0.3070
     3 C1     *101       0.0009    0.0019    0.0418
     4 C1     *011      -0.0155    0.0073   -0.0141
     5 C2     2pz        0.3204   -0.1401    0.6419
     6 C2     *pz        0.1741   -0.1099    0.4541
     7 C2     *101      -0.0165   -0.0000    0.0280
     8 C2     *011       0.0027   -0.0308   -0.0029
     9 C4     2pz        0.3365    0.4289   -0.2046
    10 C4     *pz        0.2111    0.3437   -0.1986
    11 C4     *101      -0.0108   -0.0239    0.0311
    12 C4     *011       0.0127   -0.0043    0.0154
--

      Von Neumann Entropy (Root   1) =  1.59869


      Mulliken population analysis for root number:  1
      -----------------------------------------------


++    Molecular charges:
      ------------------

      Mulliken charges per centre and basis function type
      ---------------------------------------------------

                C1      C2      H3      C4      H5    
      1s       1.9968  1.9968  0.5123  1.9966  0.5250
      2s       0.6870  0.6908  0.0000  0.6766  0.0000
      2px      0.5331  0.6038  0.0000  0.7132  0.0000
      2pz      0.5861  0.5531  0.0000  0.5585  0.0000
      2py      0.7823  0.7630  0.0000  0.7243  0.0000
      *s       0.5712  0.4800  0.2481  0.5185  0.2600
      *px      0.3399  0.3729  0.0000  0.2300  0.0000
      *110     0.0101  0.0143  0.0000  0.0167  0.0000
      *020     0.0487  0.0318  0.0000  0.0294  0.0000
      *002    -0.0180 -0.0154  0.0000 -0.0181  0.0000
      *200    -0.0015 -0.0071  0.0000  0.0179  0.0000
      *pz      0.4544  0.3803  0.0000  0.4406  0.0000
      *py      0.2714  0.0916  0.0000  0.3049  0.0000
      *101     0.0017  0.0028  0.0000  0.0060  0.0000
      *011     0.0055  0.0094  0.0000  0.0030  0.0000
      Total    6.2686  5.9679  0.7604  6.2182  0.7849

      N-E     -0.2686  0.0321  0.2396 -0.2182  0.2151

      Total electronic charge=   40.000000

      Total            charge=   -0.000000
--



      Expectation values of various properties for root number:  1
      -----------------------------------------------------------


++    Molecular properties:
      ---------------------

      Charge (e):
                      =   -0.0000
      Dipole Moment (Debye):
      Origin of the operator (Ang)=    0.0000    0.0000    0.0000
                   X=  0.0000E+00               Y=  2.7475E-01               Z=  0.0000E+00           Total=  2.7475E-01
      Quadrupole Moment (Debye*Ang):
      Origin of the operator (Ang)=    0.0000   -0.0053    0.0000
                  XX= -3.6285E+01              XY=  0.0000E+00              XZ=  0.0000E+00              YY= -2.5433E+01
                  YZ=  0.0000E+00              ZZ= -3.7650E+01
      In traceless form (Debye*Ang)
                  XX= -4.7437E+00              XY=  0.0000E+00              XZ=  0.0000E+00              YY=  1.1535E+01
                  YZ=  0.0000E+00              ZZ= -6.7912E+00
--


      Input file to MOLDEN was generated!

      Average orbitals are written to the RASORB file
      Natural orbitals for root   1 are written to the RASORB.1 file
      Spin density orbitals for root   1 are written to the SPDORB.1 file

--- Stop Module: rasscf at Thu Jul 11 02:48:16 2024 /rc=_RC_ALL_IS_WELL_ ---
*** files: ts_irc.rasscf.molden ts_irc.RasOrb ts_irc.RasOrb.1 ts_irc.SpdOrb.1 xmldump
    saved to directory /home/kenya/molcas_test/exercise_1
--- Module rasscf spent 15 seconds ---

--- Start Module: slapaf at Thu Jul 11 02:48:16 2024 ---

()()()()()()()()()()()()()()()()()()()()()()()()()()()()()()()()()()()()()()()()()()()()()()()()()()

                                              &SLAPAF

                                   only a single process is used
                       available to each process: 2.0 GB of memory, 1 thread
                                            pid: 734533
()()()()()()()()()()()()()()()()()()()()()()()()()()()()()()()()()()()()()()()()()()()()()()()()()()

--- Stop Module: slapaf at Thu Jul 11 02:48:16 2024 /rc=_RC_INVOKED_OTHER_MODULE_ ---
*** files: xmldump
    saved to directory /home/kenya/molcas_test/exercise_1

--- Start Module: alaska at Thu Jul 11 02:48:16 2024 ---

()()()()()()()()()()()()()()()()()()()()()()()()()()()()()()()()()()()()()()()()()()()()()()()()()()

                                              &ALASKA

                                   only a single process is used
                       available to each process: 2.0 GB of memory, 1 thread
                                            pid: 734536
()()()()()()()()()()()()()()()()()()()()()()()()()()()()()()()()()()()()()()()()()()()()()()()()()()


                     Threshold for contributions to the gradient: 1.000E-07


                    ********************************************
                    * Symmetry Adapted Cartesian Displacements *
                    ********************************************


           Irreducible representation : a1 
           Basis function(s) of irrep: y                                                                               

 Basis Label        Type   Center Phase
   1   C1           x         1     1      2    -1
   2   C1           y         1     1      2     1
   3   C2           x         3     1      4    -1
   4   C2           y         3     1      4     1
   5   H3           x         5     1      6    -1
   6   H3           y         5     1      6     1
   7   C4           x         7     1      8    -1
   8   C4           y         7     1      8     1
   9   H5           x         9     1     10    -1
  10   H5           y         9     1     10     1

           Irreducible representation : b1 
           Basis function(s) of irrep: x, xy, Rz                                                                       

 Basis Label        Type   Center Phase
  11   C1           x         1     1      2     1
  12   C1           y         1     1      2    -1
  13   C2           x         3     1      4     1
  14   C2           y         3     1      4    -1
  15   H3           x         5     1      6     1
  16   H3           y         5     1      6    -1
  17   C4           x         7     1      8     1
  18   C4           y         7     1      8    -1
  19   H5           x         9     1     10     1
  20   H5           y         9     1     10    -1

           Irreducible representation : a2 
           Basis function(s) of irrep: xz, Ry, I                                                                       

 Basis Label        Type   Center Phase
  21   C1           z         1     1      2    -1
  22   C2           z         3     1      4    -1
  23   H3           z         5     1      6    -1
  24   C4           z         7     1      8    -1
  25   H5           z         9     1     10    -1

           Irreducible representation : b2 
           Basis function(s) of irrep: z, yz, Rx                                                                       

 Basis Label        Type   Center Phase
  26   C1           z         1     1      2     1
  27   C2           z         3     1      4     1
  28   H3           z         5     1      6     1
  29   C4           z         7     1      8     1
  30   H5           z         9     1     10     1

                     No automatic utilization of translational and rotational invariance of the energy is employed.

 Conventional ERI gradients!

 **************************************************
 *                                                *
 *              Molecular gradients               *
 *                                                *
 **************************************************

  Irreducible representation: a1 
 ------------------------------------------------------------------------------------------
                              X                       Y                       Z
 ------------------------------------------------------------------------------------------
  C1               -5.09474442366153E-05    1.79223245311277E-05    0.00000000000000E+00
  C1                5.09474442366153E-05    1.79223245311277E-05    0.00000000000000E+00
  C2                1.58045763427594E-05   -2.06638169828466E-05    0.00000000000000E+00
  C2               -1.58045763427594E-05   -2.06638169828466E-05    0.00000000000000E+00
  H3               -8.73925654953922E-06   -2.39226697029693E-06    0.00000000000000E+00
  H3                8.73925654953922E-06   -2.39226697029693E-06    0.00000000000000E+00
  C4                7.96355997589870E-06    5.22543028935729E-06    0.00000000000000E+00
  C4               -7.96355997589870E-06    5.22543028935729E-06    0.00000000000000E+00
  H5               -1.03987355615232E-07   -9.16707905140868E-08    0.00000000000000E+00
  H5                1.03987355615232E-07   -9.16707905140868E-08    0.00000000000000E+00
 ------------------------------------------------------------------------------------------

--- Stop Module: alaska at Thu Jul 11 02:48:17 2024 /rc=_RC_ALL_IS_WELL_ ---
*** files: xmldump
    saved to directory /home/kenya/molcas_test/exercise_1
--- Module alaska spent 1 second ---

--- Start Module: slapaf at Thu Jul 11 02:48:17 2024 ---

()()()()()()()()()()()()()()()()()()()()()()()()()()()()()()()()()()()()()()()()()()()()()()()()()()

                                              &SLAPAF

                                   only a single process is used
                       available to each process: 2.0 GB of memory, 1 thread
                                            pid: 734571
()()()()()()()()()()()()()()()()()()()()()()()()()()()()()()()()()()()()()()()()()()()()()()()()()()



++       Slapaf input parameters:
         ------------------------

 Maximum number of iterations:               200
 Convergence test a la Schlegel.
 Convergence criterion on gradient/para.<=: 3.0E-04
 Convergence criterion on step/parameter<=: 3.0E-04
 Convergence criterion on energy change <=: 0.0E+00
 Parameters for step-restricted optimization
 Maximum step length (initial seed):       5.00E-02

 -RFO activated with parameters:
   Maximum number of data points used in RFO:      5
 -Constrained optimization.
  IRC forward search
  Maximum number of points:  100
  Stop when energy increases
  MEP optimization algorithm: Gonzalez-Schlegel
  Type of constraint: Hypersphere

 -Optimization for minimum.
  Optimization method: RS-RFO.

 -Initial Hessian guessed by Hessian Model Function (HMF).
  HMF augmented with weak interactions.

 -Hessian update method: Broyden-Fletcher-Goldfarb-Shanno
  Maximum number of points in Hessian update:  5

 -Relaxation will be done on non-redundant internal coordinates, based on
  force constant weighted redundant internal coordinates.

--

 ******************************************
 * Statistics of the internal coordinates *
 ******************************************
 Translations and Rotations:         0
 Bonds                     :         5
 Angles                    :         6
 Torsions                  :         6
 Out-of-plane angles       :         1


++ Constraints section
                                  CONSTRAINTS

********************************************************************************
IRC = SPHERE
VALUES
IRC =    5.0000000000000003E-002
********************************************************************************


 *************************************************************
 * Values of the primitive constraints                       *
 *************************************************************
IRC      : Radius of h-sphere=         0.00000000 au (weighted/sqrt(total weight))


 *******************************************
 * Values of the constraints   / au or rad *
 *******************************************
   Label        C         C0
 Cns001      0.000000  0.050000

--

 Warning: constraint                     1  has a null vector, I'll fix it!
  IRC forward direction.

**********************************************************************************************************************
*                                    Energy Statistics for Geometry Optimization                                     *
**********************************************************************************************************************
                       Energy     Grad      Grad              Step                 Estimated   Geom       Hessian     
Iter      Energy       Change     Norm      Max    Element    Max     Element     Final Energy Update Update   Index  
  1   -229.50902959  0.00000000 1.000000 -0.727262 nrc007  -0.025138* nrc007     -229.52670684 RS-RFO  None      0    

       +----------------------------------+----------------------------------+
       +    Cartesian Displacements       +    Gradient in internals         +
       +  Value      Threshold Converged? +  Value      Threshold Converged? +
 +-----+----------------------------------+----------------------------------+
 + RMS + 1.5352E-02  1.2000E-03     No    + 3.5355E-01  3.0000E-04     No    +
 +-----+----------------------------------+----------------------------------+
 + Max + 2.5428E-02  1.8000E-03     No    + 7.2726E-01  4.5000E-04     No    +
 +-----+----------------------------------+----------------------------------+

 Convergence not reached yet!

*****************************************************************************************************************
*****************************************************************************************************************

++ Geometry section

********************************************************************************
  Geometrical information of the new structure
********************************************************************************


 *********************************************************
 * Nuclear coordinates for the next iteration / Bohr     *
 *********************************************************
  ATOM              X               Y               Z     
  C1               1.905349        2.285506        0.000000
  C2               2.628254        0.007970        0.000000
  H3              -2.468493        4.215077        0.000000
  C4               1.322645       -2.334493        0.000000
  H5               2.307829       -4.106589        0.000000


 *********************************************************
 * Nuclear coordinates for the next iteration / Angstrom *
 *********************************************************
  ATOM              X               Y               Z     
  C1               1.008267        1.209438        0.000000
  C2               1.390812        0.004217        0.000000
  H3              -1.306270        2.230523        0.000000
  C4               0.699913       -1.235360        0.000000
  H5               1.221250       -2.173113        0.000000


                    *************************************** 
                    *    InterNuclear Distances / Bohr    * 
                    *************************************** 

               1 C1            2 C1            3 C2            4 C2            5 H3    
    1 C1       0.000000
    2 C1       3.810697        0.000000
    3 C2       2.389511        5.073531        0.000000
    4 C2       5.073531        2.389511        5.256507        0.000000
    5 H3       4.780557        2.010068        6.608825        4.210139        0.000000
    6 H3       2.010068        4.780557        4.210139        6.608825        4.936985
    7 C4       4.656601        5.635985        2.681743        4.593117        7.567667
    8 C4       5.635985        4.656601        4.593117        2.681743        6.649047
    9 H5       6.404754        7.655700        4.127017        6.426080        9.594966
   10 H5       7.655700        6.404754        6.426080        4.127017        8.323217

               6 H3            7 C4            8 C4            9 H5           10 H5    
    6 H3       0.000000
    7 C4       6.649047        0.000000
    8 C4       7.567667        2.645289        0.000000
    9 H5       8.323217        2.027539        4.039884        0.000000
   10 H5       9.594966        4.039884        2.027539        4.615657        0.000000

                    ******************************************* 
                    *    InterNuclear Distances / Angstrom    * 
                    ******************************************* 

               1 C1            2 C1            3 C2            4 C2            5 H3    
    1 C1       0.000000
    2 C1       2.016534        0.000000
    3 C2       1.264475        2.684797        0.000000
    4 C2       2.684797        1.264475        2.781624        0.000000
    5 H3       2.529762        1.063682        3.497240        2.227910        0.000000
    6 H3       1.063682        2.529762        2.227910        3.497240        2.612540
    7 C4       2.464167        2.982435        1.419117        2.430573        4.004637
    8 C4       2.982435        2.464167        2.430573        1.419117        3.518524
    9 H5       3.389250        4.051222        2.183923        3.400535        5.077437
   10 H5       4.051222        3.389250        3.400535        2.183923        4.404457

               6 H3            7 C4            8 C4            9 H5           10 H5    
    6 H3       0.000000
    7 C4       3.518524        0.000000
    8 C4       4.004637        1.399827        0.000000
    9 H5       4.404457        1.072927        2.137815        0.000000
   10 H5       5.077437        2.137815        1.072927        2.442501        0.000000

                    ************************************** 
                    *    Valence Bond Angles / Degree    * 
                    ************************************** 
                          Atom centers                 Phi
                      3 C2       1 C1       6 H3       146.12
                      4 C2       2 C1       5 H3       146.12
                      1 C1       3 C2       7 C4       133.26
                      2 C1       4 C2       8 C4       133.26
                      3 C2       7 C4       8 C4       119.13
                      3 C2       7 C4       9 H5       121.79
                      8 C4       7 C4       9 H5       119.07
                      4 C2       8 C4       7 C4       119.13
                      4 C2       8 C4      10 H5       121.79
                      7 C4       8 C4      10 H5       119.07

           ***************************************************************
           *              Valence Dihedral Angles / Degree               *
           ***************************************************************
                    Atom centers                       Phi1     Phi2     Theta 
           6 H3       1 C1       3 C2       7 C4        146.12   133.26  -180.00
           5 H3       2 C1       4 C2       8 C4        146.12   133.26  -180.00
           1 C1       3 C2       7 C4       8 C4        133.26   119.13    -0.00
           1 C1       3 C2       7 C4       9 H5        133.26   121.79  -180.00
           2 C1       4 C2       8 C4       7 C4        133.26   119.13     0.00
           2 C1       4 C2       8 C4      10 H5        133.26   121.79  -180.00
           3 C2       7 C4       8 C4       4 C2        119.13   119.13    -0.00
           3 C2       7 C4       8 C4      10 H5        119.13   119.07  -180.00
           9 H5       7 C4       8 C4      10 H5        119.07   119.07     0.00
           4 C2       8 C4       7 C4       9 H5        119.13   119.07  -180.00
--
--- Stop Module: slapaf at Thu Jul 11 02:48:17 2024 /rc=_RC_CONTINUE_LOOP_ ---
*** files: ts_irc.geo.molden ts_irc.structure ts_irc.Opt.xyz xmldump
    saved to directory /home/kenya/molcas_test/exercise_1

>>> END DO

--- Start Module: seward at Thu Jul 11 02:48:17 2024 ---
--- Stop Module: seward at Thu Jul 11 02:48:19 2024 /rc=_RC_ALL_IS_WELL_ ---
*** files: xmldump
    saved to directory /home/kenya/molcas_test/exercise_1
--- Module seward spent 1 second ---

--- Start Module: rasscf at Thu Jul 11 02:48:19 2024 ---
--- Stop Module: rasscf at Thu Jul 11 02:48:38 2024 /rc=_RC_ALL_IS_WELL_ ---
*** files: ts_irc.rasscf.molden ts_irc.RasOrb ts_irc.RasOrb.1 ts_irc.SpdOrb.1 xmldump
    saved to directory /home/kenya/molcas_test/exercise_1
--- Module rasscf spent 18 seconds ---

--- Start Module: slapaf at Thu Jul 11 02:48:38 2024 ---
--- Stop Module: slapaf at Thu Jul 11 02:48:38 2024 /rc=_RC_INVOKED_OTHER_MODULE_ ---
*** files: xmldump
    saved to directory /home/kenya/molcas_test/exercise_1

--- Start Module: alaska at Thu Jul 11 02:48:38 2024 ---
--- Stop Module: alaska at Thu Jul 11 02:48:39 2024 /rc=_RC_ALL_IS_WELL_ ---
*** files: xmldump
    saved to directory /home/kenya/molcas_test/exercise_1
--- Module alaska spent 1 second ---

--- Start Module: slapaf at Thu Jul 11 02:48:39 2024 ---

++ Constraints section
                                  CONSTRAINTS

********************************************************************************
IRC = SPHERE
VALUES
IRC =    5.0000000000000003E-002
********************************************************************************


 *************************************************************
 * Values of the primitive constraints                       *
 *************************************************************
IRC      : Radius of h-sphere=         0.05000000 au (weighted/sqrt(total weight))


 *******************************************
 * Values of the constraints   / au or rad *
 *******************************************
   Label        C         C0
 Cns001      0.050000  0.050000

--


**********************************************************************************************************************
*                                    Energy Statistics for Geometry Optimization                                     *
**********************************************************************************************************************
                       Energy     Grad      Grad              Step                 Estimated   Geom       Hessian     
Iter      Energy       Change     Norm      Max    Element    Max     Element     Final Energy Update Update   Index  
  1   -229.50902959  0.00000000 1.000000 -0.727262 nrc007  -0.025138* nrc007     -229.52670684 RS-RFO  None      0    
  2   -229.51092786 -0.00189828 0.092808  0.073256 nrc006   0.029100* nrc004     -229.51256124 RS-RFO  BFGS      0    

       +----------------------------------+----------------------------------+
       +    Cartesian Displacements       +    Gradient in internals         +
       +  Value      Threshold Converged? +  Value      Threshold Converged? +
 +-----+----------------------------------+----------------------------------+
 + RMS + 1.1116E-02  1.2000E-03     No    + 3.0936E-02  3.0000E-04     No    +
 +-----+----------------------------------+----------------------------------+
 + Max + 1.8935E-02  1.8000E-03     No    + 7.3256E-02  4.5000E-04     No    +
 +-----+----------------------------------+----------------------------------+

 Convergence not reached yet!

*****************************************************************************************************************
*****************************************************************************************************************

++ Geometry section

********************************************************************************
  Geometrical information of the new structure
********************************************************************************


 *********************************************************
 * Nuclear coordinates for the next iteration / Bohr     *
 *********************************************************
  ATOM              X               Y               Z     
  C1               1.904805        2.288613        0.000000
  C2               2.616662        0.007862        0.000000
  H3              -2.454115        4.202756        0.000000
  C4               1.314875       -2.330293        0.000000
  H5               2.304543       -4.101467        0.000000


 *********************************************************
 * Nuclear coordinates for the next iteration / Angstrom *
 *********************************************************
  ATOM              X               Y               Z     
  C1               1.007979        1.211082        0.000000
  C2               1.384678        0.004160        0.000000
  H3              -1.298662        2.224003        0.000000
  C4               0.695802       -1.233138        0.000000
  H5               1.219512       -2.170403        0.000000

--
--- Stop Module: slapaf at Thu Jul 11 02:48:39 2024 /rc=_RC_CONTINUE_LOOP_ ---
*** files: ts_irc.geo.molden ts_irc.structure ts_irc.Opt.xyz xmldump
    saved to directory /home/kenya/molcas_test/exercise_1

>>> END DO

--- Start Module: seward at Thu Jul 11 02:48:39 2024 ---
--- Stop Module: seward at Thu Jul 11 02:48:40 2024 /rc=_RC_ALL_IS_WELL_ ---
*** files: xmldump
    saved to directory /home/kenya/molcas_test/exercise_1
--- Module seward spent 1 second ---

--- Start Module: rasscf at Thu Jul 11 02:48:40 2024 ---
--- Stop Module: rasscf at Thu Jul 11 02:48:53 2024 /rc=_RC_ALL_IS_WELL_ ---
*** files: ts_irc.rasscf.molden ts_irc.RasOrb ts_irc.RasOrb.1 ts_irc.SpdOrb.1 xmldump
    saved to directory /home/kenya/molcas_test/exercise_1
--- Module rasscf spent 13 seconds ---

--- Start Module: slapaf at Thu Jul 11 02:48:53 2024 ---
--- Stop Module: slapaf at Thu Jul 11 02:48:54 2024 /rc=_RC_INVOKED_OTHER_MODULE_ ---
*** files: xmldump
    saved to directory /home/kenya/molcas_test/exercise_1

--- Start Module: alaska at Thu Jul 11 02:48:54 2024 ---
--- Stop Module: alaska at Thu Jul 11 02:48:55 2024 /rc=_RC_ALL_IS_WELL_ ---
*** files: xmldump
    saved to directory /home/kenya/molcas_test/exercise_1
--- Module alaska spent 1 second ---

--- Start Module: slapaf at Thu Jul 11 02:48:55 2024 ---

++ Constraints section
                                  CONSTRAINTS

********************************************************************************
IRC = SPHERE
VALUES
IRC =    5.0000000000000003E-002
********************************************************************************


 *************************************************************
 * Values of the primitive constraints                       *
 *************************************************************
IRC      : Radius of h-sphere=         0.05076096 au (weighted/sqrt(total weight))


 *******************************************
 * Values of the constraints   / au or rad *
 *******************************************
   Label        C         C0
 Cns001      0.050761  0.050000

--


**********************************************************************************************************************
*                                    Energy Statistics for Geometry Optimization                                     *
**********************************************************************************************************************
                       Energy     Grad      Grad              Step                 Estimated   Geom       Hessian     
Iter      Energy       Change     Norm      Max    Element    Max     Element     Final Energy Update Update   Index  
  1   -229.50902959  0.00000000 1.000000 -0.727262 nrc007  -0.025138* nrc007     -229.52670684 RS-RFO  None      0    
  2   -229.51092786 -0.00189828 0.092808  0.073256 nrc006   0.029100* nrc004     -229.51256124 RS-RFO  BFGS      0    
  3   -229.51073761  0.00019025 0.017866 -0.012114 nrc005   0.005595  nrc006     -229.51079588 RS-RFO  BFGS      0    

       +----------------------------------+----------------------------------+
       +    Cartesian Displacements       +    Gradient in internals         +
       +  Value      Threshold Converged? +  Value      Threshold Converged? +
 +-----+----------------------------------+----------------------------------+
 + RMS + 4.7648E-03  1.2000E-03     No    + 5.9554E-03  3.0000E-04     No    +
 +-----+----------------------------------+----------------------------------+
 + Max + 8.0163E-03  1.8000E-03     No    + 1.2114E-02  4.5000E-04     No    +
 +-----+----------------------------------+----------------------------------+

 Convergence not reached yet!

*****************************************************************************************************************
*****************************************************************************************************************

++ Geometry section

********************************************************************************
  Geometrical information of the new structure
********************************************************************************


 *********************************************************
 * Nuclear coordinates for the next iteration / Bohr     *
 *********************************************************
  ATOM              X               Y               Z     
  C1               1.904068        2.286170        0.000000
  C2               2.619301        0.006592        0.000000
  H3              -2.446808        4.203973        0.000000
  C4               1.318235       -2.334179        0.000000
  H5               2.309300       -4.105492        0.000000


 *********************************************************
 * Nuclear coordinates for the next iteration / Angstrom *
 *********************************************************
  ATOM              X               Y               Z     
  C1               1.007590        1.209789        0.000000
  C2               1.386075        0.003488        0.000000
  H3              -1.294795        2.224647        0.000000
  C4               0.697580       -1.235195        0.000000
  H5               1.222029       -2.172533        0.000000

--
--- Stop Module: slapaf at Thu Jul 11 02:48:55 2024 /rc=_RC_CONTINUE_LOOP_ ---
*** files: ts_irc.geo.molden ts_irc.structure ts_irc.Opt.xyz xmldump
    saved to directory /home/kenya/molcas_test/exercise_1

>>> END DO

--- Start Module: seward at Thu Jul 11 02:48:55 2024 ---
--- Stop Module: seward at Thu Jul 11 02:48:56 2024 /rc=_RC_ALL_IS_WELL_ ---
*** files: xmldump
    saved to directory /home/kenya/molcas_test/exercise_1
--- Module seward spent 1 second ---

--- Start Module: rasscf at Thu Jul 11 02:48:56 2024 ---
--- Stop Module: rasscf at Thu Jul 11 02:49:07 2024 /rc=_RC_ALL_IS_WELL_ ---
*** files: ts_irc.rasscf.molden ts_irc.RasOrb ts_irc.RasOrb.1 ts_irc.SpdOrb.1 xmldump
    saved to directory /home/kenya/molcas_test/exercise_1
--- Module rasscf spent 11 seconds ---

--- Start Module: slapaf at Thu Jul 11 02:49:07 2024 ---
--- Stop Module: slapaf at Thu Jul 11 02:49:07 2024 /rc=_RC_INVOKED_OTHER_MODULE_ ---
*** files: xmldump
    saved to directory /home/kenya/molcas_test/exercise_1

--- Start Module: alaska at Thu Jul 11 02:49:07 2024 ---
--- Stop Module: alaska at Thu Jul 11 02:49:09 2024 /rc=_RC_ALL_IS_WELL_ ---
*** files: xmldump
    saved to directory /home/kenya/molcas_test/exercise_1
--- Module alaska spent 1 second ---

--- Start Module: slapaf at Thu Jul 11 02:49:09 2024 ---

++ Constraints section
                                  CONSTRAINTS

********************************************************************************
IRC = SPHERE
VALUES
IRC =    5.0000000000000003E-002
********************************************************************************


 *************************************************************
 * Values of the primitive constraints                       *
 *************************************************************
IRC      : Radius of h-sphere=         0.05008861 au (weighted/sqrt(total weight))


 *******************************************
 * Values of the constraints   / au or rad *
 *******************************************
   Label        C         C0
 Cns001      0.050089  0.050000

--


**********************************************************************************************************************
*                                    Energy Statistics for Geometry Optimization                                     *
**********************************************************************************************************************
                       Energy     Grad      Grad              Step                 Estimated   Geom       Hessian     
Iter      Energy       Change     Norm      Max    Element    Max     Element     Final Energy Update Update   Index  
  1   -229.50902959  0.00000000 1.000000 -0.727262 nrc007  -0.025138* nrc007     -229.52670684 RS-RFO  None      0    
  2   -229.51092786 -0.00189828 0.092808  0.073256 nrc006   0.029100* nrc004     -229.51256124 RS-RFO  BFGS      0    
  3   -229.51073761  0.00019025 0.017866 -0.012114 nrc005   0.005595  nrc006     -229.51079588 RS-RFO  BFGS      0    
  4   -229.51077208 -0.00003447 0.012903 -0.010601 nrc005  -0.009346  nrc004     -229.51085730 RS-RFO  BFGS      0    

       +----------------------------------+----------------------------------+
       +    Cartesian Displacements       +    Gradient in internals         +
       +  Value      Threshold Converged? +  Value      Threshold Converged? +
 +-----+----------------------------------+----------------------------------+
 + RMS + 4.8366E-03  1.2000E-03     No    + 4.3010E-03  3.0000E-04     No    +
 +-----+----------------------------------+----------------------------------+
 + Max + 6.4808E-03  1.8000E-03     No    + 1.0601E-02  4.5000E-04     No    +
 +-----+----------------------------------+----------------------------------+

 Convergence not reached yet!

*****************************************************************************************************************
*****************************************************************************************************************

++ Geometry section

********************************************************************************
  Geometrical information of the new structure
********************************************************************************


 *********************************************************
 * Nuclear coordinates for the next iteration / Bohr     *
 *********************************************************
  ATOM              X               Y               Z     
  C1               1.904862        2.285879        0.000000
  C2               2.624075        0.006847        0.000000
  H3              -2.447800        4.210769        0.000000
  C4               1.322575       -2.336567        0.000000
  H5               2.313378       -4.107905        0.000000


 *********************************************************
 * Nuclear coordinates for the next iteration / Angstrom *
 *********************************************************
  ATOM              X               Y               Z     
  C1               1.008010        1.209635        0.000000
  C2               1.388601        0.003623        0.000000
  H3              -1.295320        2.228243        0.000000
  C4               0.699876       -1.236458        0.000000
  H5               1.224187       -2.173810        0.000000

--
--- Stop Module: slapaf at Thu Jul 11 02:49:09 2024 /rc=_RC_CONTINUE_LOOP_ ---
*** files: ts_irc.geo.molden ts_irc.structure ts_irc.Opt.xyz xmldump
    saved to directory /home/kenya/molcas_test/exercise_1

>>> END DO

--- Start Module: seward at Thu Jul 11 02:49:09 2024 ---
--- Stop Module: seward at Thu Jul 11 02:49:10 2024 /rc=_RC_ALL_IS_WELL_ ---
*** files: xmldump
    saved to directory /home/kenya/molcas_test/exercise_1
--- Module seward spent 1 second ---

--- Start Module: rasscf at Thu Jul 11 02:49:10 2024 ---
--- Stop Module: rasscf at Thu Jul 11 02:49:21 2024 /rc=_RC_ALL_IS_WELL_ ---
*** files: ts_irc.rasscf.molden ts_irc.RasOrb ts_irc.RasOrb.1 ts_irc.SpdOrb.1 xmldump
    saved to directory /home/kenya/molcas_test/exercise_1
--- Module rasscf spent 11 seconds ---

--- Start Module: slapaf at Thu Jul 11 02:49:21 2024 ---
--- Stop Module: slapaf at Thu Jul 11 02:49:21 2024 /rc=_RC_INVOKED_OTHER_MODULE_ ---
*** files: xmldump
    saved to directory /home/kenya/molcas_test/exercise_1

--- Start Module: alaska at Thu Jul 11 02:49:21 2024 ---
--- Stop Module: alaska at Thu Jul 11 02:49:23 2024 /rc=_RC_ALL_IS_WELL_ ---
*** files: xmldump
    saved to directory /home/kenya/molcas_test/exercise_1
--- Module alaska spent 1 second ---

--- Start Module: slapaf at Thu Jul 11 02:49:23 2024 ---

++ Constraints section
                                  CONSTRAINTS

********************************************************************************
IRC = SPHERE
VALUES
IRC =    5.0000000000000003E-002
********************************************************************************


 *************************************************************
 * Values of the primitive constraints                       *
 *************************************************************
IRC      : Radius of h-sphere=         0.05016540 au (weighted/sqrt(total weight))


 *******************************************
 * Values of the constraints   / au or rad *
 *******************************************
   Label        C         C0
 Cns001      0.050165  0.050000

--


**********************************************************************************************************************
*                                    Energy Statistics for Geometry Optimization                                     *
**********************************************************************************************************************
                       Energy     Grad      Grad              Step                 Estimated   Geom       Hessian     
Iter      Energy       Change     Norm      Max    Element    Max     Element     Final Energy Update Update   Index  
  1   -229.50902959  0.00000000 1.000000 -0.727262 nrc007  -0.025138* nrc007     -229.52670684 RS-RFO  None      0    
  2   -229.51092786 -0.00189828 0.092808  0.073256 nrc006   0.029100* nrc004     -229.51256124 RS-RFO  BFGS      0    
  3   -229.51073761  0.00019025 0.017866 -0.012114 nrc005   0.005595  nrc006     -229.51079588 RS-RFO  BFGS      0    
  4   -229.51077208 -0.00003447 0.012903 -0.010601 nrc005  -0.009346  nrc004     -229.51085730 RS-RFO  BFGS      0    
  5   -229.51089010 -0.00011802 0.006040 -0.005632 nrc005  -0.010172  nrc004     -229.51092285 RS-RFO  BFGS      0    

       +----------------------------------+----------------------------------+
       +    Cartesian Displacements       +    Gradient in internals         +
       +  Value      Threshold Converged? +  Value      Threshold Converged? +
 +-----+----------------------------------+----------------------------------+
 + RMS + 4.5715E-03  1.2000E-03     No    + 2.0133E-03  3.0000E-04     No    +
 +-----+----------------------------------+----------------------------------+
 + Max + 9.7327E-03  1.8000E-03     No    + 5.6324E-03  4.5000E-04     No    +
 +-----+----------------------------------+----------------------------------+

 Convergence not reached yet!

*****************************************************************************************************************
*****************************************************************************************************************

++ Geometry section

********************************************************************************
  Geometrical information of the new structure
********************************************************************************


 *********************************************************
 * Nuclear coordinates for the next iteration / Bohr     *
 *********************************************************
  ATOM              X               Y               Z     
  C1               1.905085        2.286287        0.000000
  C2               2.626696        0.007144        0.000000
  H3              -2.457209        4.214298        0.000000
  C4               1.323526       -2.336385        0.000000
  H5               2.312939       -4.107117        0.000000


 *********************************************************
 * Nuclear coordinates for the next iteration / Angstrom *
 *********************************************************
  ATOM              X               Y               Z     
  C1               1.008127        1.209851        0.000000
  C2               1.389988        0.003780        0.000000
  H3              -1.300299        2.230110        0.000000
  C4               0.700380       -1.236361        0.000000
  H5               1.223954       -2.173393        0.000000

--
--- Stop Module: slapaf at Thu Jul 11 02:49:23 2024 /rc=_RC_CONTINUE_LOOP_ ---
*** files: ts_irc.geo.molden ts_irc.structure ts_irc.Opt.xyz xmldump
    saved to directory /home/kenya/molcas_test/exercise_1

>>> END DO

--- Start Module: seward at Thu Jul 11 02:49:23 2024 ---
--- Stop Module: seward at Thu Jul 11 02:49:24 2024 /rc=_RC_ALL_IS_WELL_ ---
*** files: xmldump
    saved to directory /home/kenya/molcas_test/exercise_1
--- Module seward spent 1 second ---

--- Start Module: rasscf at Thu Jul 11 02:49:24 2024 ---
--- Stop Module: rasscf at Thu Jul 11 02:49:36 2024 /rc=_RC_ALL_IS_WELL_ ---
*** files: ts_irc.rasscf.molden ts_irc.RasOrb ts_irc.RasOrb.1 ts_irc.SpdOrb.1 xmldump
    saved to directory /home/kenya/molcas_test/exercise_1
--- Module rasscf spent 12 seconds ---

--- Start Module: slapaf at Thu Jul 11 02:49:36 2024 ---
[...]
 * Nuclear coordinates for the next iteration / Angstrom *
 *********************************************************
  ATOM              X               Y               Z     
  C1               0.719187        1.234572        0.000000
  C2               1.339473       -0.008760        0.000000
  H3              -1.277764        2.152818        0.000000
  C4               0.725622       -1.239417        0.000000
  H5               1.269428       -2.165585        0.000000

--
--- Stop Module: slapaf at Thu Jul 11 03:09:56 2024 /rc=_RC_CONTINUE_LOOP_ ---
*** files: ts_irc.geo.molden ts_irc.structure ts_irc.Opt.xyz xmldump
    saved to directory /home/kenya/molcas_test/exercise_1

>>> END DO

--- Start Module: seward at Thu Jul 11 03:09:56 2024 ---
--- Stop Module: seward at Thu Jul 11 03:09:57 2024 /rc=_RC_ALL_IS_WELL_ ---
*** files: xmldump
    saved to directory /home/kenya/molcas_test/exercise_1
--- Module seward spent 1 second ---

--- Start Module: rasscf at Thu Jul 11 03:09:57 2024 ---
--- Stop Module: rasscf at Thu Jul 11 03:10:11 2024 /rc=_RC_ALL_IS_WELL_ ---
*** files: ts_irc.rasscf.molden ts_irc.RasOrb ts_irc.RasOrb.1 ts_irc.SpdOrb.1 xmldump
    saved to directory /home/kenya/molcas_test/exercise_1
--- Module rasscf spent 14 seconds ---

--- Start Module: slapaf at Thu Jul 11 03:10:11 2024 ---
--- Stop Module: slapaf at Thu Jul 11 03:10:11 2024 /rc=_RC_INVOKED_OTHER_MODULE_ ---
*** files: xmldump
    saved to directory /home/kenya/molcas_test/exercise_1

--- Start Module: alaska at Thu Jul 11 03:10:11 2024 ---
--- Stop Module: alaska at Thu Jul 11 03:10:13 2024 /rc=_RC_ALL_IS_WELL_ ---
*** files: xmldump
    saved to directory /home/kenya/molcas_test/exercise_1
--- Module alaska spent 1 second ---

--- Start Module: slapaf at Thu Jul 11 03:10:13 2024 ---

++ Constraints section
                                  CONSTRAINTS

********************************************************************************
IRC = SPHERE
VALUES
IRC =    5.0000000000000003E-002
********************************************************************************


 *************************************************************
 * Values of the primitive constraints                       *
 *************************************************************
IRC      : Radius of h-sphere=         0.05247891 au (weighted/sqrt(total weight))


 *******************************************
 * Values of the constraints   / au or rad *
 *******************************************
   Label        C         C0
 Cns001      0.052479  0.050000

--


**********************************************************************************************************************
*                                    Energy Statistics for Geometry Optimization                                     *
**********************************************************************************************************************
                       Energy     Grad      Grad              Step                 Estimated   Geom       Hessian     
Iter      Energy       Change     Norm      Max    Element    Max     Element     Final Energy Update Update   Index  
  1   -229.52233747  0.01537179 0.041722 -0.027213 nrc008   0.020842* nrc001     -229.52306211 RS-RFO  BFGS      0(4) 
  2   -229.52361330 -0.00127583 0.054444  0.039189 nrc006   0.031757* nrc001     -229.52493178 RS-RFO  BFGS      0(3) 
  3   -229.52623985 -0.00262655 0.063729  0.056549 nrc008   0.024446* nrc001     -229.52736143 RS-RFO  BFGS      0(2) 
  4   -229.52877159 -0.00253174 0.062796  0.042683 nrc007   0.023781* nrc001     -229.52987988 RS-RFO  BFGS      0(1) 
  5   -229.53092439 -0.00215280 0.055911  0.041863 nrc008   0.017365* nrc001     -229.53162272 RS-RFO  BFGS      0    
  6   -229.53233194 -0.00140755 0.049197  0.034601 nrc008   0.017011* nrc001     -229.53294658 RS-RFO  BFGS      0    
  7   -229.53347697 -0.00114503 0.041897  0.022824 nrc007   0.023680* nrc001     -229.53421655 RS-RFO  BFGS      0    
  8   -229.53473894 -0.00126198 0.031889  0.019594 nrc005   0.032939* nrc001     -229.53553320 RS-RFO  BFGS      0    
  9   -229.53595502 -0.00121607 0.020167  0.012316 nrc001   0.032450* nrc001     -229.53645752 RS-RFO  BFGS      0    
 10   -229.53673778 -0.00078276 0.012224  0.008132 nrc006   0.022388* nrc001     -229.53695354 RS-RFO  BFGS      0    

       +----------------------------------+----------------------------------+
       +    Cartesian Displacements       +    Gradient in internals         +
       +  Value      Threshold Converged? +  Value      Threshold Converged? +
 +-----+----------------------------------+----------------------------------+
 + RMS + 1.2080E-02  1.2000E-03     No    + 4.0747E-03  3.0000E-04     No    +
 +-----+----------------------------------+----------------------------------+
 + Max + 1.5170E-02  1.8000E-03     No    + 8.1320E-03  4.5000E-04     No    +
 +-----+----------------------------------+----------------------------------+

 Convergence not reached yet!

*****************************************************************************************************************
*****************************************************************************************************************

++ Geometry section

********************************************************************************
  Geometrical information of the new structure
********************************************************************************


 *********************************************************
 * Nuclear coordinates for the next iteration / Bohr     *
 *********************************************************
  ATOM              X               Y               Z     
  C1               1.371765        2.323388        0.000000
  C2               2.544741       -0.014479        0.000000
  H3              -2.422929        4.060981        0.000000
  C4               1.366844       -2.336253        0.000000
  H5               2.388062       -4.090054        0.000000


 *********************************************************
 * Nuclear coordinates for the next iteration / Angstrom *
 *********************************************************
  ATOM              X               Y               Z     
  C1               0.725907        1.229484        0.000000
  C2               1.346619       -0.007662        0.000000
  H3              -1.282159        2.148979        0.000000
  C4               0.723303       -1.236292        0.000000
  H5               1.263708       -2.164363        0.000000

--
--- Stop Module: slapaf at Thu Jul 11 03:10:13 2024 /rc=_RC_CONTINUE_LOOP_ ---
*** files: ts_irc.geo.molden ts_irc.structure ts_irc.Opt.xyz xmldump
    saved to directory /home/kenya/molcas_test/exercise_1

>>> END DO

--- Start Module: seward at Thu Jul 11 03:10:13 2024 ---
--- Stop Module: seward at Thu Jul 11 03:10:14 2024 /rc=_RC_ALL_IS_WELL_ ---
*** files: xmldump
    saved to directory /home/kenya/molcas_test/exercise_1
--- Module seward spent 1 second ---

--- Start Module: rasscf at Thu Jul 11 03:10:14 2024 ---
--- Stop Module: rasscf at Thu Jul 11 03:10:27 2024 /rc=_RC_ALL_IS_WELL_ ---
*** files: ts_irc.rasscf.molden ts_irc.RasOrb ts_irc.RasOrb.1 ts_irc.SpdOrb.1 xmldump
    saved to directory /home/kenya/molcas_test/exercise_1
--- Module rasscf spent 13 seconds ---

--- Start Module: slapaf at Thu Jul 11 03:10:27 2024 ---
--- Stop Module: slapaf at Thu Jul 11 03:10:27 2024 /rc=_RC_INVOKED_OTHER_MODULE_ ---
*** files: xmldump
    saved to directory /home/kenya/molcas_test/exercise_1

--- Start Module: alaska at Thu Jul 11 03:10:27 2024 ---
--- Stop Module: alaska at Thu Jul 11 03:10:29 2024 /rc=_RC_ALL_IS_WELL_ ---
*** files: xmldump
    saved to directory /home/kenya/molcas_test/exercise_1
--- Module alaska spent 1 second ---

--- Start Module: slapaf at Thu Jul 11 03:10:29 2024 ---

++ Constraints section
                                  CONSTRAINTS

********************************************************************************
IRC = SPHERE
VALUES
IRC =    5.0000000000000003E-002
********************************************************************************


 *************************************************************
 * Values of the primitive constraints                       *
 *************************************************************
IRC      : Radius of h-sphere=         0.05152223 au (weighted/sqrt(total weight))


 *******************************************
 * Values of the constraints   / au or rad *
 *******************************************
   Label        C         C0
 Cns001      0.051522  0.050000

--


**********************************************************************************************************************
*                                    Energy Statistics for Geometry Optimization                                     *
**********************************************************************************************************************
                       Energy     Grad      Grad              Step                 Estimated   Geom       Hessian     
Iter      Energy       Change     Norm      Max    Element    Max     Element     Final Energy Update Update   Index  
  1   -229.52233747  0.01537179 0.041722 -0.027213 nrc008   0.020842* nrc001     -229.52306211 RS-RFO  BFGS      0(4) 
  2   -229.52361330 -0.00127583 0.054444  0.039189 nrc006   0.031757* nrc001     -229.52493178 RS-RFO  BFGS      0(3) 
  3   -229.52623985 -0.00262655 0.063729  0.056549 nrc008   0.024446* nrc001     -229.52736143 RS-RFO  BFGS      0(2) 
  4   -229.52877159 -0.00253174 0.062796  0.042683 nrc007   0.023781* nrc001     -229.52987988 RS-RFO  BFGS      0(1) 
  5   -229.53092439 -0.00215280 0.055911  0.041863 nrc008   0.017365* nrc001     -229.53162272 RS-RFO  BFGS      0    
  6   -229.53233194 -0.00140755 0.049197  0.034601 nrc008   0.017011* nrc001     -229.53294658 RS-RFO  BFGS      0    
  7   -229.53347697 -0.00114503 0.041897  0.022824 nrc007   0.023680* nrc001     -229.53421655 RS-RFO  BFGS      0    
  8   -229.53473894 -0.00126198 0.031889  0.019594 nrc005   0.032939* nrc001     -229.53553320 RS-RFO  BFGS      0    
  9   -229.53595502 -0.00121607 0.020167  0.012316 nrc001   0.032450* nrc001     -229.53645752 RS-RFO  BFGS      0    
 10   -229.53673778 -0.00078276 0.012224  0.008132 nrc006   0.022388* nrc001     -229.53695354 RS-RFO  BFGS      0    
 11   -229.53715384 -0.00041606 0.008435 -0.005321 nrc001  -0.041806* nrc001     -229.53744995 RS-RFO  BFGS      0    

       +----------------------------------+----------------------------------+
       +    Cartesian Displacements       +    Gradient in internals         +
       +  Value      Threshold Converged? +  Value      Threshold Converged? +
 +-----+----------------------------------+----------------------------------+
 + RMS + 2.3223E-02  1.2000E-03     No    + 2.8118E-03  3.0000E-04     No    +
 +-----+----------------------------------+----------------------------------+
 + Max + 2.8688E-02  1.8000E-03     No    + 5.3212E-03  4.5000E-04     No    +
 +-----+----------------------------------+----------------------------------+

 Convergence not reached yet!

*****************************************************************************************************************
*****************************************************************************************************************

++ Geometry section

********************************************************************************
  Geometrical information of the new structure
********************************************************************************


 *********************************************************
 * Nuclear coordinates for the next iteration / Bohr     *
 *********************************************************
  ATOM              X               Y               Z     
  C1               1.393849        2.304408        0.000000
  C2               2.572831       -0.009498        0.000000
  H3              -2.423693        4.054530        0.000000
  C4               1.358017       -2.322651        0.000000
  H5               2.361235       -4.086551        0.000000


 *********************************************************
 * Nuclear coordinates for the next iteration / Angstrom *
 *********************************************************
  ATOM              X               Y               Z     
  C1               0.737593        1.219440        0.000000
  C2               1.361484       -0.005026        0.000000
  H3              -1.282563        2.145565        0.000000
  C4               0.718632       -1.229094        0.000000
  H5               1.249512       -2.162510        0.000000

--
--- Stop Module: slapaf at Thu Jul 11 03:10:29 2024 /rc=_RC_CONTINUE_LOOP_ ---
*** files: ts_irc.geo.molden ts_irc.structure ts_irc.Opt.xyz xmldump
    saved to directory /home/kenya/molcas_test/exercise_1

>>> END DO

--- Start Module: seward at Thu Jul 11 03:10:29 2024 ---
--- Stop Module: seward at Thu Jul 11 03:10:30 2024 /rc=_RC_ALL_IS_WELL_ ---
*** files: xmldump
    saved to directory /home/kenya/molcas_test/exercise_1
--- Module seward spent 1 second ---

--- Start Module: rasscf at Thu Jul 11 03:10:30 2024 ---
--- Stop Module: rasscf at Thu Jul 11 03:10:45 2024 /rc=_RC_ALL_IS_WELL_ ---
*** files: ts_irc.rasscf.molden ts_irc.RasOrb ts_irc.RasOrb.1 ts_irc.SpdOrb.1 xmldump
    saved to directory /home/kenya/molcas_test/exercise_1
--- Module rasscf spent 14 seconds ---

--- Start Module: slapaf at Thu Jul 11 03:10:45 2024 ---
--- Stop Module: slapaf at Thu Jul 11 03:10:45 2024 /rc=_RC_INVOKED_OTHER_MODULE_ ---
*** files: xmldump
    saved to directory /home/kenya/molcas_test/exercise_1

--- Start Module: alaska at Thu Jul 11 03:10:45 2024 ---
--- Stop Module: alaska at Thu Jul 11 03:10:46 2024 /rc=_RC_ALL_IS_WELL_ ---
*** files: xmldump
    saved to directory /home/kenya/molcas_test/exercise_1
--- Module alaska spent 1 second ---

--- Start Module: slapaf at Thu Jul 11 03:10:46 2024 ---

++ Constraints section
                                  CONSTRAINTS

********************************************************************************
IRC = SPHERE
VALUES
IRC =    5.0000000000000003E-002
********************************************************************************


 *************************************************************
 * Values of the primitive constraints                       *
 *************************************************************
IRC      : Radius of h-sphere=         0.05585559 au (weighted/sqrt(total weight))


 *******************************************
 * Values of the constraints   / au or rad *
 *******************************************
   Label        C         C0
 Cns001      0.055856  0.050000

--


**********************************************************************************************************************
*                                    Energy Statistics for Geometry Optimization                                     *
**********************************************************************************************************************
                       Energy     Grad      Grad              Step                 Estimated   Geom       Hessian     
Iter      Energy       Change     Norm      Max    Element    Max     Element     Final Energy Update Update   Index  
  1   -229.52233747  0.01537179 0.041722 -0.027213 nrc008   0.020842* nrc001     -229.52306211 RS-RFO  BFGS      0(4) 
  2   -229.52361330 -0.00127583 0.054444  0.039189 nrc006   0.031757* nrc001     -229.52493178 RS-RFO  BFGS      0(3) 
  3   -229.52623985 -0.00262655 0.063729  0.056549 nrc008   0.024446* nrc001     -229.52736143 RS-RFO  BFGS      0(2) 
  4   -229.52877159 -0.00253174 0.062796  0.042683 nrc007   0.023781* nrc001     -229.52987988 RS-RFO  BFGS      0(1) 
  5   -229.53092439 -0.00215280 0.055911  0.041863 nrc008   0.017365* nrc001     -229.53162272 RS-RFO  BFGS      0    
  6   -229.53233194 -0.00140755 0.049197  0.034601 nrc008   0.017011* nrc001     -229.53294658 RS-RFO  BFGS      0    
  7   -229.53347697 -0.00114503 0.041897  0.022824 nrc007   0.023680* nrc001     -229.53421655 RS-RFO  BFGS      0    
  8   -229.53473894 -0.00126198 0.031889  0.019594 nrc005   0.032939* nrc001     -229.53553320 RS-RFO  BFGS      0    
  9   -229.53595502 -0.00121607 0.020167  0.012316 nrc001   0.032450* nrc001     -229.53645752 RS-RFO  BFGS      0    
 10   -229.53673778 -0.00078276 0.012224  0.008132 nrc006   0.022388* nrc001     -229.53695354 RS-RFO  BFGS      0    
 11   -229.53715384 -0.00041606 0.008435 -0.005321 nrc001  -0.041806* nrc001     -229.53744995 RS-RFO  BFGS      0    
 12   -229.53729995 -0.00014611 0.005756  0.003582 nrc007  -0.027126* nrc009     -229.53736750 RS-RFO  BFGS      0    

       +----------------------------------+----------------------------------+
       +    Cartesian Displacements       +    Gradient in internals         +
       +  Value      Threshold Converged? +  Value      Threshold Converged? +
 +-----+----------------------------------+----------------------------------+
 + RMS + 1.8744E-02  1.2000E-03     No    + 1.9187E-03  3.0000E-04     No    +
 +-----+----------------------------------+----------------------------------+
 + Max + 3.0719E-02  1.8000E-03     No    + 3.5820E-03  4.5000E-04     No    +
 +-----+----------------------------------+----------------------------------+

 Convergence not reached yet!

*****************************************************************************************************************
*****************************************************************************************************************

++ IRC/Minimum Energy Path Information

 IRC(backward)-search terminated due to problematic constraint!


          Cumul.
 Point  Length (bohr)       Energy  Curvature
 --------------------------------------------
     0   0.000000    -229.50902959   0.000000
     1  -0.050011    -229.51120343  -0.000000
     2  -0.149796    -229.52552237   1.630777
     3  -0.248808    -229.53770926   3.493352
--


++ Geometry section

********************************************************************************
  Geometrical information of the final structure
********************************************************************************

  NOTE: on convergence the final predicted structure will be printed here.
  This is not identical to the structure printed in the head of the output.

 *********************************************************
 * Nuclear coordinates of the final structure / Bohr     *
 *********************************************************
  ATOM              X               Y               Z     
  C1               1.389802        2.288082        0.000000
  C2               2.589750       -0.010312        0.000000
  H3              -2.392999        4.052815        0.000000
  C4               1.359149       -2.311605        0.000000
  H5               2.351768       -4.081070        0.000000


 *********************************************************
 * Nuclear coordinates of the final structure / Angstrom *
 *********************************************************
  ATOM              X               Y               Z     
  C1               0.735451        1.210801        0.000000
  C2               1.370436       -0.005457        0.000000
  H3              -1.266320        2.144658        0.000000
  C4               0.719231       -1.223249        0.000000
  H5               1.244502       -2.159609        0.000000

--
--- Stop Module: slapaf at Thu Jul 11 03:10:46 2024 /rc=_RC_ALL_IS_WELL_ ---
*** files: ts_irc.geo.molden ts_irc.irc.molden ts_irc.structure ts_irc.Opt.xyz xmldump
    saved to directory /home/kenya/molcas_test/exercise_1

>>> END DO

.##################.
.# Happy landing! #.
.##################.

    Timing: Wall=1365.35 User=1325.08 System=36.33
