[Molden Format]
[N_Atoms]
                   10
[Atoms] (AU)
C1          1      6           1.81735553      2.28543702      0.00000000
C1          2      6          -1.81735553      2.28543702      0.00000000
C2          3      6           2.63287976      0.00435979      0.00000000
C2          4      6          -2.63287976      0.00435979      0.00000000
H3          5      1          -2.48057500      4.18574807      0.00000000
H3          6      1           2.48057500      4.18574807      0.00000000
C4          7      6           1.32738734     -2.32856449      0.00000000
C4          8      6          -1.32738734     -2.32856449      0.00000000
H5          9      1           2.30712146     -4.10404170      0.00000000
H5         10      1          -2.30712146     -4.10404170      0.00000000
[Charge] (Mulliken)
   0.0000000000000000     
   0.0000000000000000     
   0.0000000000000000     
   0.0000000000000000     
   0.0000000000000000     
   0.0000000000000000     
   0.0000000000000000     
   0.0000000000000000     
   0.0000000000000000     
   0.0000000000000000     
[GTO] (AU)
   1
   s   6
  3.047524880E+03  1.834737132E-03
  4.573695180E+02  1.403732281E-02
  1.039486850E+02  6.884262227E-02
  2.921015530E+01  2.321844432E-01
  9.286662960E+00  4.679413484E-01
  3.163926960E+00  3.623119853E-01
   s   3
  7.868272350E+00 -1.193324198E-01
  1.881288540E+00 -1.608541517E-01
  5.442492580E-01  1.143456438E+00
   s   1
  1.687144782E-01  1.000000000E+00
   p   3
  7.868272350E+00  6.899906659E-02
  1.881288540E+00  3.164239610E-01
  5.442492580E-01  7.443082909E-01
   p   1
  1.687144782E-01  1.000000000E+00
   d   1
  8.000000000E-01  1.000000000E+00
 
   2
   s   6
  3.047524880E+03  1.834737132E-03
  4.573695180E+02  1.403732281E-02
  1.039486850E+02  6.884262227E-02
  2.921015530E+01  2.321844432E-01
  9.286662960E+00  4.679413484E-01
  3.163926960E+00  3.623119853E-01
   s   3
  7.868272350E+00 -1.193324198E-01
  1.881288540E+00 -1.608541517E-01
  5.442492580E-01  1.143456438E+00
   s   1
  1.687144782E-01  1.000000000E+00
   p   3
  7.868272350E+00  6.899906659E-02
  1.881288540E+00  3.164239610E-01
  5.442492580E-01  7.443082909E-01
   p   1
  1.687144782E-01  1.000000000E+00
   d   1
  8.000000000E-01  1.000000000E+00
 
   3
   s   6
  3.047524880E+03  1.834737132E-03
  4.573695180E+02  1.403732281E-02
  1.039486850E+02  6.884262227E-02
  2.921015530E+01  2.321844432E-01
  9.286662960E+00  4.679413484E-01
  3.163926960E+00  3.623119853E-01
   s   3
  7.868272350E+00 -1.193324198E-01
  1.881288540E+00 -1.608541517E-01
  5.442492580E-01  1.143456438E+00
   s   1
  1.687144782E-01  1.000000000E+00
   p   3
  7.868272350E+00  6.899906659E-02
  1.881288540E+00  3.164239610E-01
  5.442492580E-01  7.443082909E-01
   p   1
  1.687144782E-01  1.000000000E+00
   d   1
  8.000000000E-01  1.000000000E+00
 
   4
   s   6
  3.047524880E+03  1.834737132E-03
  4.573695180E+02  1.403732281E-02
  1.039486850E+02  6.884262227E-02
  2.921015530E+01  2.321844432E-01
  9.286662960E+00  4.679413484E-01
  3.163926960E+00  3.623119853E-01
   s   3
  7.868272350E+00 -1.193324198E-01
  1.881288540E+00 -1.608541517E-01
  5.442492580E-01  1.143456438E+00
   s   1
  1.687144782E-01  1.000000000E+00
   p   3
  7.868272350E+00  6.899906659E-02
  1.881288540E+00  3.164239610E-01
  5.442492580E-01  7.443082909E-01
   p   1
  1.687144782E-01  1.000000000E+00
   d   1
  8.000000000E-01  1.000000000E+00
 
   5
   s   3
  1.873113696E+01  3.349460434E-02
  2.825394365E+00  2.347269535E-01
  6.401216923E-01  8.137573261E-01
   s   1
  1.612777588E-01  1.000000000E+00
 
   6
   s   3
  1.873113696E+01  3.349460434E-02
  2.825394365E+00  2.347269535E-01
  6.401216923E-01  8.137573261E-01
   s   1
  1.612777588E-01  1.000000000E+00
 
   7
   s   6
  3.047524880E+03  1.834737132E-03
  4.573695180E+02  1.403732281E-02
  1.039486850E+02  6.884262227E-02
  2.921015530E+01  2.321844432E-01
  9.286662960E+00  4.679413484E-01
  3.163926960E+00  3.623119853E-01
   s   3
  7.868272350E+00 -1.193324198E-01
  1.881288540E+00 -1.608541517E-01
  5.442492580E-01  1.143456438E+00
   s   1
  1.687144782E-01  1.000000000E+00
   p   3
  7.868272350E+00  6.899906659E-02
  1.881288540E+00  3.164239610E-01
  5.442492580E-01  7.443082909E-01
   p   1
  1.687144782E-01  1.000000000E+00
   d   1
  8.000000000E-01  1.000000000E+00
 
   8
   s   6
  3.047524880E+03  1.834737132E-03
  4.573695180E+02  1.403732281E-02
  1.039486850E+02  6.884262227E-02
  2.921015530E+01  2.321844432E-01
  9.286662960E+00  4.679413484E-01
  3.163926960E+00  3.623119853E-01
   s   3
  7.868272350E+00 -1.193324198E-01
  1.881288540E+00 -1.608541517E-01
  5.442492580E-01  1.143456438E+00
   s   1
  1.687144782E-01  1.000000000E+00
   p   3
  7.868272350E+00  6.899906659E-02
  1.881288540E+00  3.164239610E-01
  5.442492580E-01  7.443082909E-01
   p   1
  1.687144782E-01  1.000000000E+00
   d   1
  8.000000000E-01  1.000000000E+00
 
   9
   s   3
  1.873113696E+01  3.349460434E-02
  2.825394365E+00  2.347269535E-01
  6.401216923E-01  8.137573261E-01
   s   1
  1.612777588E-01  1.000000000E+00
 
  10
   s   3
  1.873113696E+01  3.349460434E-02
  2.825394365E+00  2.347269535E-01
  6.401216923E-01  8.137573261E-01
   s   1
  1.612777588E-01  1.000000000E+00
 
[MO]
Sym=     1a1 
Ene=   -11.3550
Spin= Alpha
Occup=    2.00000
   1         0.34358069
   2         0.00758986
   3         0.00109579
   4         0.00001018
   5        -0.00146720
   6         0.00000000
   7         0.00000636
   8        -0.00091626
   9         0.00000000
  10         0.00000000
  11         0.00000000
  12         0.00000000
  13         0.00000000
  14         0.00000000
  15         0.00000000
  16         0.34358069
  17         0.00758986
  18         0.00109579
  19        -0.00001018
  20        -0.00146720
  21         0.00000000
  22        -0.00000636
  23        -0.00091626
  24         0.00000000
  25         0.00000000
  26         0.00000000
  27         0.00000000
  28        -0.00000000
  29         0.00000000
  30         0.00000000
  31         0.45515976
  32         0.00989405
  33         0.00127280
  34        -0.00108450
  35         0.00009347
  36         0.00000000
  37        -0.00067727
  38         0.00005837
  39         0.00000000
  40         0.00000000
  41         0.00000000
  42        -0.00000000
  43        -0.00000000
  44         0.00000000
  45         0.00000000
  46         0.45515976
  47         0.00989405
  48         0.00127280
  49         0.00108450
  50         0.00009347
  51         0.00000000
  52         0.00067727
  53         0.00005837
  54         0.00000000
  55         0.00000000
  56         0.00000000
  57        -0.00000000
  58         0.00000000
  59         0.00000000
  60         0.00000000
  61         0.00081143
  62         0.00090600
  63         0.00081143
  64         0.00090600
  65         0.40883700
  66         0.00908037
  67         0.00135844
  68        -0.00060185
  69         0.00113745
  70         0.00000000
  71        -0.00037585
  72         0.00071034
  73         0.00000000
  74         0.00000000
  75         0.00000000
  76         0.00000000
  77        -0.00000000
  78         0.00000000
  79         0.00000000
  80         0.40883700
  81         0.00908037
  82         0.00135844
  83         0.00060185
  84         0.00113745
  85         0.00000000
  86         0.00037585
  87         0.00071034
  88         0.00000000
  89         0.00000000
  90         0.00000000
  91         0.00000000
  92         0.00000000
  93         0.00000000
  94         0.00000000
  95         0.00101149
  96         0.00112938
  97         0.00101149
  98         0.00112938
Sym=     2a1 
Ene=   -11.3450
Spin= Alpha
Occup=    2.00000
   1        -0.40817577
   2        -0.00804324
   3        -0.00021789
   4         0.00015849
   5         0.00030707
   6         0.00000000
   7         0.00009898
   8         0.00019177
   9         0.00000000
  10         0.00000000
  11         0.00000000
  12         0.00000000
  13         0.00000000
  14         0.00000000
  15         0.00000000
  16        -0.40817577
  17        -0.00804324
  18        -0.00021789
  19        -0.00015849
  20         0.00030707
  21         0.00000000
  22        -0.00009898
  23         0.00019177
  24         0.00000000
  25         0.00000000
  26         0.00000000
  27         0.00000000
  28        -0.00000000
  29         0.00000000
  30         0.00000000
  31        -0.18003650
  32        -0.00327816
  33         0.00020396
  34        -0.00026292
  35        -0.00232429
  36         0.00000000
  37        -0.00016419
  38        -0.00145152
  39         0.00000000
  40         0.00000000
  41         0.00000000
  42        -0.00000000
  43         0.00000000
  44         0.00000000
  45         0.00000000
  46        -0.18003650
  47        -0.00327816
  48         0.00020396
  49         0.00026292
  50        -0.00232429
  51         0.00000000
  52         0.00016419
  53        -0.00145152
  54         0.00000000
  55         0.00000000
  56         0.00000000
  57        -0.00000000
  58        -0.00000000
  59         0.00000000
  60         0.00000000
  61        -0.00088931
  62        -0.00099296
  63        -0.00088931
  64        -0.00099296
  65         0.54322096
  66         0.01055154
  67         0.00011985
  68        -0.00140605
  69        -0.00054467
  70         0.00000000
  71        -0.00087808
  72        -0.00034014
  73         0.00000000
  74        -0.00000000
  75        -0.00000000
  76         0.00000000
  77        -0.00000000
  78         0.00000000
  79         0.00000000
  80         0.54322096
  81         0.01055154
  82         0.00011985
  83         0.00140605
  84        -0.00054467
  85         0.00000000
  86         0.00087808
  87        -0.00034014
  88         0.00000000
  89        -0.00000000
  90        -0.00000000
  91         0.00000000
  92         0.00000000
  93         0.00000000
  94         0.00000000
  95         0.00116444
  96         0.00130016
  97         0.00116444
  98         0.00130016
Sym=     3a1 
Ene=   -11.3270
Spin= Alpha
Occup=    2.00000
   1        -0.45816391
   2        -0.00767149
   3         0.00126601
   4         0.00081728
   5        -0.00134458
   6         0.00000000
   7         0.00051039
   8        -0.00083969
   9         0.00000000
  10        -0.00000000
  11        -0.00000000
  12        -0.00000000
  13        -0.00000000
  14         0.00000000
  15         0.00000000
  16        -0.45816391
  17        -0.00767149
  18         0.00126601
  19        -0.00081728
  20        -0.00134458
  21         0.00000000
  22        -0.00051039
  23        -0.00083969
  24         0.00000000
  25        -0.00000000
  26        -0.00000000
  27        -0.00000000
  28         0.00000000
  29         0.00000000
  30         0.00000000
  31         0.50515221
  32         0.00810082
  33        -0.00179381
  34         0.00067932
  35        -0.00089633
  36         0.00000000
  37         0.00042424
  38        -0.00055976
  39         0.00000000
  40         0.00000000
  41         0.00000000
  42         0.00000000
  43        -0.00000000
  44         0.00000000
  45         0.00000000
  46         0.50515221
  47         0.00810082
  48        -0.00179381
  49        -0.00067932
  50        -0.00089633
  51         0.00000000
  52        -0.00042424
  53        -0.00055976
  54         0.00000000
  55         0.00000000
  56         0.00000000
  57         0.00000000
  58         0.00000000
  59         0.00000000
  60         0.00000000
  61        -0.00085438
  62        -0.00095396
  63        -0.00085438
  64        -0.00095396
  65        -0.17716125
  66        -0.00278534
  67         0.00069111
  68         0.00084272
  69         0.00091641
  70         0.00000000
  71         0.00052628
  72         0.00057229
  73         0.00000000
  74        -0.00000000
  75        -0.00000000
  76        -0.00000000
  77        -0.00000000
  78         0.00000000
  79         0.00000000
  80        -0.17716125
  81        -0.00278534
  82         0.00069111
  83        -0.00084272
  84         0.00091641
  85         0.00000000
  86        -0.00052628
  87         0.00057229
  88         0.00000000
  89        -0.00000000
  90        -0.00000000
  91        -0.00000000
  92         0.00000000
  93         0.00000000
  94         0.00000000
  95        -0.00027836
  96        -0.00031080
  97        -0.00027836
  98        -0.00031080
Sym=     4a1 
Ene=    -1.6446
Spin= Alpha
Occup=    2.00000
   1        -0.07647348
   2         0.09802510
   3         0.11077406
   4        -0.02411251
   5        -0.04399125
   6         0.00000000
   7        -0.01505825
   8        -0.02747251
   9         0.00000000
  10        -0.00000000
  11        -0.00000000
  12        -0.00000000
  13        -0.00000000
  14         0.00000000
  15         0.00000000
  16        -0.07647348
  17         0.09802510
  18         0.11077406
  19         0.02411251
  20        -0.04399125
  21         0.00000000
  22         0.01505825
  23        -0.02747251
  24         0.00000000
  25        -0.00000000
  26        -0.00000000
  27        -0.00000000
  28         0.00000000
  29         0.00000000
  30         0.00000000
  31        -0.09548430
  32         0.11862677
  33         0.13411805
  34        -0.05728913
  35        -0.00757991
  36         0.00000000
  37        -0.03577703
  38        -0.00473365
  39         0.00000000
  40        -0.00000000
  41        -0.00000000
  42        -0.00000000
  43         0.00000000
  44         0.00000000
  45         0.00000000
  46        -0.09548430
  47         0.11862677
  48         0.13411805
  49         0.05728913
  50        -0.00757991
  51         0.00000000
  52         0.03577703
  53        -0.00473365
  54         0.00000000
  55        -0.00000000
  56        -0.00000000
  57        -0.00000000
  58        -0.00000000
  59         0.00000000
  60         0.00000000
  61         0.02818890
  62         0.03147436
  63         0.02818890
  64         0.03147436
  65        -0.11302738
  66         0.13890471
  67         0.15707020
  68        -0.03277725
  69         0.03878777
  70         0.00000000
  71        -0.02046938
  72         0.02422294
  73         0.00000000
  74        -0.00000000
  75        -0.00000000
  76         0.00000000
  77        -0.00000000
  78         0.00000000
  79         0.00000000
  80        -0.11302738
  81         0.13890471
  82         0.15707020
  83         0.03277725
  84         0.03878777
  85         0.00000000
  86         0.02046938
  87         0.02422294
  88         0.00000000
  89        -0.00000000
  90        -0.00000000
  91         0.00000000
  92         0.00000000
  93         0.00000000
  94         0.00000000
  95         0.04611664
  96         0.05149162
  97         0.04611664
  98         0.05149162
Sym=     5a1 
Ene=    -1.3015
Spin= Alpha
Occup=    2.00000
   1        -0.11017976
   2         0.14964093
   3         0.16896251
   4        -0.01791380
   5         0.01782907
   6         0.00000000
   7        -0.01118716
   8         0.01113425
   9         0.00000000
  10        -0.00000000
  11        -0.00000000
  12        -0.00000000
  13        -0.00000000
  14         0.00000000
  15         0.00000000
  16        -0.11017976
  17         0.14964093
  18         0.16896251
  19         0.01791380
  20         0.01782907
  21         0.00000000
  22         0.01118716
  23         0.01113425
  24         0.00000000
  25        -0.00000000
  26        -0.00000000
  27        -0.00000000
  28         0.00000000
  29         0.00000000
  30         0.00000000
  31        -0.02857342
  32         0.03665942
  33         0.04142672
  34        -0.00546346
  35         0.09905565
  36         0.00000000
  37        -0.00341193
  38         0.06186020
  39         0.00000000
  40         0.00000000
  41         0.00000000
  42         0.00000000
  43         0.00000000
  44         0.00000000
  45         0.00000000
  46        -0.02857342
  47         0.03665942
  48         0.04142672
  49         0.00546346
  50         0.09905565
  51         0.00000000
  52         0.00341193
  53         0.06186020
  54         0.00000000
  55         0.00000000
  56         0.00000000
  57         0.00000000
  58        -0.00000000
  59         0.00000000
  60         0.00000000
  61         0.07805127
  62         0.08714828
  63         0.07805127
  64         0.08714828
  65         0.09672098
  66        -0.12692420
  67        -0.14338254
  68         0.02990487
  69         0.05823070
  70         0.00000000
  71         0.01867557
  72         0.03636504
  73         0.00000000
  74        -0.00000000
  75        -0.00000000
  76         0.00000000
  77        -0.00000000
  78         0.00000000
  79         0.00000000
  80         0.09672098
  81        -0.12692420
  82        -0.14338254
  83        -0.02990487
  84         0.05823070
  85         0.00000000
  86        -0.01867557
  87         0.03636504
  88         0.00000000
  89        -0.00000000
  90        -0.00000000
  91         0.00000000
  92         0.00000000
  93         0.00000000
  94         0.00000000
  95        -0.07694783
  96        -0.08591623
  97        -0.07694783
  98        -0.08591623
Sym=     6a1 
Ene=    -0.9524
Spin= Alpha
Occup=    2.00000
   1        -0.04394385
   2         0.07517967
   3         0.08464260
   4         0.00281612
   5         0.15918980
   6         0.00000000
   7         0.00175867
   8         0.09941395
   9         0.00000000
  10        -0.00000000
  11         0.00000000
  12        -0.00000000
  13        -0.00000000
  14         0.00000000
  15         0.00000000
  16        -0.04394385
  17         0.07517967
  18         0.08464260
  19        -0.00281612
  20         0.15918980
  21         0.00000000
  22        -0.00175867
  23         0.09941395
  24         0.00000000
  25        -0.00000000
  26         0.00000000
  27        -0.00000000
  28         0.00000000
  29         0.00000000
  30         0.00000000
  31         0.06776803
  32        -0.08544685
  33        -0.09658361
  34         0.04778899
  35         0.02170912
  36         0.00000000
  37         0.02984420
  38         0.01355733
  39         0.00000000
  40         0.00000000
  41        -0.00000000
  42         0.00000000
  43         0.00000000
  44         0.00000000
  45         0.00000000
  46         0.06776803
  47        -0.08544685
  48        -0.09658361
  49        -0.04778899
  50         0.02170912
  51         0.00000000
  52        -0.02984420
  53         0.01355733
  54         0.00000000
  55         0.00000000
  56        -0.00000000
  57         0.00000000
  58        -0.00000000
  59         0.00000000
  60         0.00000000
  61         0.11729087
  62         0.13096132
  63         0.11729087
  64         0.13096132
  65        -0.02779789
  66         0.04571724
  67         0.05149472
  68        -0.01725991
  69        -0.16713409
  70         0.00000000
  71        -0.01077881
  72        -0.10437515
  73         0.00000000
  74        -0.00000000
  75         0.00000000
  76         0.00000000
  77         0.00000000
  78         0.00000000
  79         0.00000000
  80        -0.02779789
  81         0.04571724
  82         0.05149472
  83         0.01725991
  84        -0.16713409
  85         0.00000000
  86         0.01077881
  87        -0.10437515
  88         0.00000000
  89        -0.00000000
  90         0.00000000
  91         0.00000000
  92        -0.00000000
  93         0.00000000
  94         0.00000000
  95         0.09431819
  96         0.10531114
  97         0.09431819
  98         0.10531114
Sym=     7a1 
Ene=    -0.7774
Spin= Alpha
Occup=    2.00000
   1         0.00378538
   2        -0.00632095
   3        -0.00711851
   4         0.19099517
   5        -0.04285001
   6         0.00000000
   7         0.11927638
   8        -0.02675981
   9         0.00000000
  10         0.00000000
  11         0.00000000
  12         0.00000000
  13         0.00000000
  14         0.00000000
  15         0.00000000
  16         0.00378538
  17        -0.00632095
  18        -0.00711851
  19        -0.19099517
  20        -0.04285001
  21         0.00000000
  22        -0.11927638
  23        -0.02675981
  24         0.00000000
  25         0.00000000
  26         0.00000000
  27         0.00000000
  28        -0.00000000
  29         0.00000000
  30         0.00000000
  31        -0.08269892
  32         0.14456324
  33         0.16272098
  34         0.17431626
  35         0.00610778
  36         0.00000000
  37         0.10886042
  38         0.00381430
  39         0.00000000
  40        -0.00000000
  41        -0.00000000
  42        -0.00000000
  43         0.00000000
  44         0.00000000
  45         0.00000000
  46        -0.08269892
  47         0.14456324
  48         0.16272098
  49        -0.17431626
  50         0.00610778
  51         0.00000000
  52        -0.10886042
  53         0.00381430
  54         0.00000000
  55        -0.00000000
  56        -0.00000000
  57        -0.00000000
  58        -0.00000000
  59         0.00000000
  60         0.00000000
  61         0.00562623
  62         0.00628198
  63         0.00562623
  64         0.00628198
  65         0.02270619
  66        -0.02017228
  67        -0.02294502
  68         0.18008686
  69        -0.04283423
  70         0.00000000
  71         0.11246415
  72        -0.02674995
  73         0.00000000
  74         0.00000000
  75        -0.00000000
  76         0.00000000
  77        -0.00000000
  78         0.00000000
  79         0.00000000
  80         0.02270619
  81        -0.02017228
  82        -0.02294502
  83        -0.18008686
  84        -0.04283423
  85         0.00000000
  86        -0.11246415
  87        -0.02674995
  88         0.00000000
  89         0.00000000
  90        -0.00000000
  91         0.00000000
  92         0.00000000
  93         0.00000000
  94         0.00000000
  95         0.05958528
  96         0.06653005
  97         0.05958528
  98         0.06653005
Sym=     8a1 
Ene=    -0.6226
Spin= Alpha
Occup=    2.00000
   1         0.03529385
   2        -0.04437458
   3        -0.05016032
   4        -0.03315352
   5         0.19201068
   6         0.00000000
   7        -0.02070436
   8         0.11991057
   9         0.00000000
  10        -0.00000000
  11         0.00000000
  12         0.00000000
  13         0.00000000
  14         0.00000000
  15         0.00000000
  16         0.03529385
  17        -0.04437458
  18        -0.05016032
  19         0.03315352
  20         0.19201068
  21         0.00000000
  22         0.02070436
  23         0.11991057
  24         0.00000000
  25        -0.00000000
  26         0.00000000
  27         0.00000000
  28        -0.00000000
  29         0.00000000
  30         0.00000000
  31        -0.00264396
  32         0.01769356
  33         0.01975588
  34         0.01466102
  35        -0.23868465
  36         0.00000000
  37         0.00915580
  38        -0.14905844
  39         0.00000000
  40        -0.00000000
  41        -0.00000000
  42         0.00000000
  43        -0.00000000
  44         0.00000000
  45         0.00000000
  46        -0.00264396
  47         0.01769356
  48         0.01975588
  49        -0.01466102
  50        -0.23868465
  51         0.00000000
  52        -0.00915580
  53        -0.14905844
  54         0.00000000
  55        -0.00000000
  56        -0.00000000
  57         0.00000000
  58         0.00000000
  59         0.00000000
  60         0.00000000
  61         0.09682672
  62         0.10811205
  63         0.09682672
  64         0.10811205
  65        -0.01941898
  66         0.03501615
  67         0.03940121
  68         0.12496695
  69         0.18234400
  70         0.00000000
  71         0.07804179
  72         0.11387373
  73         0.00000000
  74        -0.00000000
  75        -0.00000000
  76        -0.00000000
  77         0.00000000
  78         0.00000000
  79         0.00000000
  80        -0.01941898
  81         0.03501615
  82         0.03940121
  83        -0.12496695
  84         0.18234400
  85         0.00000000
  86        -0.07804179
  87         0.11387373
  88         0.00000000
  89        -0.00000000
  90        -0.00000000
  91        -0.00000000
  92        -0.00000000
  93         0.00000000
  94         0.00000000
  95        -0.04894964
  96        -0.05465481
  97        -0.04894964
  98        -0.05465481
Sym=     9a1 
Ene=    -0.5872
Spin= Alpha
Occup=    2.00000
   1        -0.01942386
   2         0.05084216
   3         0.05702135
   4        -0.26472382
   5        -0.05655353
   6         0.00000000
   7        -0.16531989
   8        -0.03531765
   9         0.00000000
  10         0.00000000
  11         0.00000000
  12         0.00000000
  13         0.00000000
  14         0.00000000
  15         0.00000000
  16        -0.01942386
  17         0.05084216
  18         0.05702135
  19         0.26472382
  20        -0.05655353
  21         0.00000000
  22         0.16531989
  23        -0.03531765
  24         0.00000000
  25         0.00000000
  26         0.00000000
  27         0.00000000
  28        -0.00000000
  29         0.00000000
  30         0.00000000
  31         0.00200431
  32        -0.00412940
  33        -0.00464041
  34        -0.05029406
  35        -0.04206415
  36         0.00000000
  37        -0.03140861
  38        -0.02626904
  39         0.00000000
  40        -0.00000000
  41        -0.00000000
  42        -0.00000000
  43         0.00000000
  44         0.00000000
  45         0.00000000
  46         0.00200431
  47        -0.00412940
  48        -0.00464041
  49         0.05029406
  50        -0.04206415
  51         0.00000000
  52         0.03140861
  53        -0.02626904
  54         0.00000000
  55        -0.00000000
  56        -0.00000000
  57        -0.00000000
  58        -0.00000000
  59         0.00000000
  60         0.00000000
  61        -0.06921004
  62        -0.07727660
  63        -0.06921004
  64        -0.07727660
  65         0.03729258
  66        -0.06366403
  67        -0.07167918
  68         0.24697987
  69        -0.08125556
  70         0.00000000
  71         0.15423880
  72        -0.05074405
  73         0.00000000
  74        -0.00000000
  75        -0.00000000
  76        -0.00000000
  77        -0.00000000
  78         0.00000000
  79         0.00000000
  80         0.03729258
  81        -0.06366403
  82        -0.07167918
  83        -0.24697987
  84        -0.08125556
  85         0.00000000
  86        -0.15423880
  87        -0.05074405
  88         0.00000000
  89        -0.00000000
  90        -0.00000000
  91        -0.00000000
  92         0.00000000
  93         0.00000000
  94         0.00000000
  95         0.10195153
  96         0.11383416
  97         0.10195153
  98         0.11383416
Sym=    10a1 
Ene=    -0.3299
Spin= Alpha
Occup=    0.00000
   1        -0.00083951
   2        -0.03612870
   3        -0.04020624
   4         0.25760732
   5        -0.03666446
   6         0.00000000
   7         0.16087564
   8        -0.02289693
   9         0.00000000
  10        -0.00000000
  11        -0.00000000
  12        -0.00000000
  13        -0.00000000
  14         0.00000000
  15         0.00000000
  16        -0.00083951
  17        -0.03612870
  18        -0.04020624
  19        -0.25760732
  20        -0.03666446
  21         0.00000000
  22        -0.16087564
  23        -0.02289693
  24         0.00000000
  25        -0.00000000
  26        -0.00000000
  27        -0.00000000
  28         0.00000000
  29         0.00000000
  30         0.00000000
  31         0.02687308
  32        -0.12202711
  33        -0.13643521
  34        -0.41018466
  35         0.05120946
  36         0.00000000
  37        -0.25616011
  38         0.03198028
  39         0.00000000
  40         0.00000000
  41        -0.00000000
  42         0.00000000
  43         0.00000000
  44         0.00000000
  45         0.00000000
  46         0.02687308
  47        -0.12202711
  48        -0.13643521
  49         0.41018466
  50         0.05120946
  51         0.00000000
  52         0.25616011
  53         0.03198028
  54         0.00000000
  55         0.00000000
  56        -0.00000000
  57         0.00000000
  58        -0.00000000
  59         0.00000000
  60         0.00000000
  61         0.07394992
  62         0.08256891
  63         0.07394992
  64         0.08256891
  65         0.00623425
  66        -0.02010469
  67        -0.02251718
  68         0.18263280
  69         0.04477280
  70         0.00000000
  71         0.11405409
  72         0.02796059
  73         0.00000000
  74        -0.00000000
  75        -0.00000000
  76        -0.00000000
  77        -0.00000000
  78         0.00000000
  79         0.00000000
  80         0.00623425
  81        -0.02010469
  82        -0.02251718
  83        -0.18263280
  84         0.04477280
  85         0.00000000
  86        -0.11405409
  87         0.02796059
  88         0.00000000
  89        -0.00000000
  90        -0.00000000
  91        -0.00000000
  92         0.00000000
  93         0.00000000
  94         0.00000000
  95         0.08979137
  96         0.10025671
  97         0.08979137
  98         0.10025671
Sym=    11a1 
Ene=    -0.1421
Spin= Alpha
Occup=    0.00000
   1        -0.08054680
   2         0.35785717
   3         0.40014763
   4         0.16051499
   5         0.21509353
   6         0.00000000
   7         0.10024153
   8         0.13432580
   9         0.00000000
  10        -0.00000000
  11        -0.00000000
  12        -0.00000000
  13        -0.00000000
  14         0.00000000
  15         0.00000000
  16        -0.08054680
  17         0.35785717
  18         0.40014763
  19        -0.16051499
  20         0.21509353
  21         0.00000000
  22        -0.10024153