[Molden Format]
[N_Atoms]
                   10
[Atoms] (AU)
C1          1      6           1.39384939      2.30394216      0.00000000
C1          2      6          -1.39384939      2.30394216      0.00000000
C2          3      6           2.57283135     -0.00996343      0.00000000
C2          4      6          -2.57283135     -0.00996343      0.00000000
H3          5      1          -2.42369279      4.05406507      0.00000000
H3          6      1           2.42369279      4.05406507      0.00000000
C4          7      6           1.35801677     -2.32311682      0.00000000
C4          8      6          -1.35801677     -2.32311682      0.00000000
H5          9      1           2.36123523     -4.08701651      0.00000000
H5         10      1          -2.36123523     -4.08701651      0.00000000
[Charge] (Mulliken)
   0.0000000000000000     
   0.0000000000000000     
   0.0000000000000000     
   0.0000000000000000     
   0.0000000000000000     
   0.0000000000000000     
   0.0000000000000000     
   0.0000000000000000     
   0.0000000000000000     
   0.0000000000000000     
[GTO] (AU)
   1
   s   6
  3.047524880E+03  1.834737132E-03
  4.573695180E+02  1.403732281E-02
  1.039486850E+02  6.884262227E-02
  2.921015530E+01  2.321844432E-01
  9.286662960E+00  4.679413484E-01
  3.163926960E+00  3.623119853E-01
   s   3
  7.868272350E+00 -1.193324198E-01
  1.881288540E+00 -1.608541517E-01
  5.442492580E-01  1.143456438E+00
   s   1
  1.687144782E-01  1.000000000E+00
   p   3
  7.868272350E+00  6.899906659E-02
  1.881288540E+00  3.164239610E-01
  5.442492580E-01  7.443082909E-01
   p   1
  1.687144782E-01  1.000000000E+00
   d   1
  8.000000000E-01  1.000000000E+00
 
   2
   s   6
  3.047524880E+03  1.834737132E-03
  4.573695180E+02  1.403732281E-02
  1.039486850E+02  6.884262227E-02
  2.921015530E+01  2.321844432E-01
  9.286662960E+00  4.679413484E-01
  3.163926960E+00  3.623119853E-01
   s   3
  7.868272350E+00 -1.193324198E-01
  1.881288540E+00 -1.608541517E-01
  5.442492580E-01  1.143456438E+00
   s   1
  1.687144782E-01  1.000000000E+00
   p   3
  7.868272350E+00  6.899906659E-02
  1.881288540E+00  3.164239610E-01
  5.442492580E-01  7.443082909E-01
   p   1
  1.687144782E-01  1.000000000E+00
   d   1
  8.000000000E-01  1.000000000E+00
 
   3
   s   6
  3.047524880E+03  1.834737132E-03
  4.573695180E+02  1.403732281E-02
  1.039486850E+02  6.884262227E-02
  2.921015530E+01  2.321844432E-01
  9.286662960E+00  4.679413484E-01
  3.163926960E+00  3.623119853E-01
   s   3
  7.868272350E+00 -1.193324198E-01
  1.881288540E+00 -1.608541517E-01
  5.442492580E-01  1.143456438E+00
   s   1
  1.687144782E-01  1.000000000E+00
   p   3
  7.868272350E+00  6.899906659E-02
  1.881288540E+00  3.164239610E-01
  5.442492580E-01  7.443082909E-01
   p   1
  1.687144782E-01  1.000000000E+00
   d   1
  8.000000000E-01  1.000000000E+00
 
   4
   s   6
  3.047524880E+03  1.834737132E-03
  4.573695180E+02  1.403732281E-02
  1.039486850E+02  6.884262227E-02
  2.921015530E+01  2.321844432E-01
  9.286662960E+00  4.679413484E-01
  3.163926960E+00  3.623119853E-01
   s   3
  7.868272350E+00 -1.193324198E-01
  1.881288540E+00 -1.608541517E-01
  5.442492580E-01  1.143456438E+00
   s   1
  1.687144782E-01  1.000000000E+00
   p   3
  7.868272350E+00  6.899906659E-02
  1.881288540E+00  3.164239610E-01
  5.442492580E-01  7.443082909E-01
   p   1
  1.687144782E-01  1.000000000E+00
   d   1
  8.000000000E-01  1.000000000E+00
 
   5
   s   3
  1.873113696E+01  3.349460434E-02
  2.825394365E+00  2.347269535E-01
  6.401216923E-01  8.137573261E-01
   s   1
  1.612777588E-01  1.000000000E+00
 
   6
   s   3
  1.873113696E+01  3.349460434E-02
  2.825394365E+00  2.347269535E-01
  6.401216923E-01  8.137573261E-01
   s   1
  1.612777588E-01  1.000000000E+00
 
   7
   s   6
  3.047524880E+03  1.834737132E-03
  4.573695180E+02  1.403732281E-02
  1.039486850E+02  6.884262227E-02
  2.921015530E+01  2.321844432E-01
  9.286662960E+00  4.679413484E-01
  3.163926960E+00  3.623119853E-01
   s   3
  7.868272350E+00 -1.193324198E-01
  1.881288540E+00 -1.608541517E-01
  5.442492580E-01  1.143456438E+00
   s   1
  1.687144782E-01  1.000000000E+00
   p   3
  7.868272350E+00  6.899906659E-02
  1.881288540E+00  3.164239610E-01
  5.442492580E-01  7.443082909E-01
   p   1
  1.687144782E-01  1.000000000E+00
   d   1
  8.000000000E-01  1.000000000E+00
 
   8
   s   6
  3.047524880E+03  1.834737132E-03
  4.573695180E+02  1.403732281E-02
  1.039486850E+02  6.884262227E-02
  2.921015530E+01  2.321844432E-01
  9.286662960E+00  4.679413484E-01
  3.163926960E+00  3.623119853E-01
   s   3
  7.868272350E+00 -1.193324198E-01
  1.881288540E+00 -1.608541517E-01
  5.442492580E-01  1.143456438E+00
   s   1
  1.687144782E-01  1.000000000E+00
   p   3
  7.868272350E+00  6.899906659E-02
  1.881288540E+00  3.164239610E-01
  5.442492580E-01  7.443082909E-01
   p   1
  1.687144782E-01  1.000000000E+00
   d   1
  8.000000000E-01  1.000000000E+00
 
   9
   s   3
  1.873113696E+01  3.349460434E-02
  2.825394365E+00  2.347269535E-01
  6.401216923E-01  8.137573261E-01
   s   1
  1.612777588E-01  1.000000000E+00
 
  10
   s   3
  1.873113696E+01  3.349460434E-02
  2.825394365E+00  2.347269535E-01
  6.401216923E-01  8.137573261E-01
   s   1
  1.612777588E-01  1.000000000E+00
 
[MO]
Sym=     1a1 
Ene=   -11.2390
Spin= Alpha
Occup=    2.00000
   1         0.67734386
   2         0.01869555
   3        -0.00538479
   4         0.00029176
   5        -0.00008240
   6         0.00000000
   7        -0.00049205
   8         0.00019618
   9         0.00000000
  10        -0.00172944
  11        -0.00133244
  12        -0.00173488
  13        -0.00000200
  14         0.00000000
  15         0.00000000
  16         0.67734386
  17         0.01869555
  18        -0.00538479
  19        -0.00029176
  20        -0.00008240
  21         0.00000000
  22         0.00049205
  23         0.00019618
  24         0.00000000
  25        -0.00172944
  26        -0.00133244
  27        -0.00173488
  28         0.00000200
  29         0.00000000
  30         0.00000000
  31         0.18610528
  32         0.00494541
  33         0.00029843
  34        -0.00007036
  35        -0.00007256
  36         0.00000000
  37        -0.00006853
  38         0.00091096
  39         0.00000000
  40        -0.00060629
  41        -0.00051659
  42        -0.00053801
  43         0.00003239
  44         0.00000000
  45         0.00000000
  46         0.18610528
  47         0.00494541
  48         0.00029843
  49         0.00007036
  50        -0.00007256
  51         0.00000000
  52         0.00006853
  53         0.00091096
  54         0.00000000
  55        -0.00060629
  56        -0.00051659
  57        -0.00053801
  58        -0.00003239
  59         0.00000000
  60         0.00000000
  61        -0.00015948
  62         0.00136918
  63        -0.00015948
  64         0.00136918
  65         0.04415459
  66         0.00109941
  67         0.00035578
  68        -0.00004242
  69        -0.00007162
  70         0.00000000
  71        -0.00003339
  72         0.00047583
  73         0.00000000
  74        -0.00014901
  75        -0.00008197
  76        -0.00018902
  77        -0.00002155
  78         0.00000000
  79         0.00000000
  80         0.04415459
  81         0.00109941
  82         0.00035578
  83         0.00004242
  84        -0.00007162
  85         0.00000000
  86         0.00003339
  87         0.00047583
  88         0.00000000
  89        -0.00014901
  90        -0.00008197
  91        -0.00018902
  92         0.00002155
  93         0.00000000
  94         0.00000000
  95        -0.00001936
  96         0.00029203
  97        -0.00001936
  98         0.00029203
Sym=     2a1 
Ene=   -11.2370
Spin= Alpha
Occup=    2.00000
   1        -0.14627591
   2        -0.00417035
   3         0.00311281
   4        -0.00028036
   5         0.00016076
   6         0.00000000
   7         0.00004546
   8        -0.00118931
   9         0.00000000
  10         0.00025551
  11         0.00020299
  12         0.00025561
  13         0.00008430
  14         0.00000000
  15         0.00000000
  16        -0.14627591
  17        -0.00417035
  18         0.00311281
  19         0.00028036
  20         0.00016076
  21         0.00000000
  22        -0.00004546
  23        -0.00118931
  24         0.00000000
  25         0.00025551
  26         0.00020299
  27         0.00025561
  28        -0.00008430
  29         0.00000000
  30         0.00000000
  31         0.39776205
  32         0.01075202
  33        -0.00397989
  34        -0.00041566
  35         0.00010249
  36         0.00000000
  37         0.00087621
  38        -0.00098835
  39         0.00000000
  40        -0.00101969
  41        -0.00069373
  42        -0.00099313
  43        -0.00003466
  44         0.00000000
  45         0.00000000
  46         0.39776205
  47         0.01075202
  48        -0.00397989
  49         0.00041566
  50         0.00010249
  51         0.00000000
  52        -0.00087621
  53        -0.00098835
  54         0.00000000
  55        -0.00101969
  56        -0.00069373
  57        -0.00099313
  58         0.00003466
  59         0.00000000
  60         0.00000000
  61         0.00001520
  62         0.00004540
  63         0.00001520
  64         0.00004540
  65         0.56190300
  66         0.01565509
  67        -0.00322427
  68        -0.00010059
  69         0.00001114
  70         0.00000000
  71        -0.00052872
  72         0.00045675
  73         0.00000000
  74        -0.00145171
  75        -0.00126094
  76        -0.00150079
  77        -0.00006540
  78         0.00000000
  79         0.00000000
  80         0.56190300
  81         0.01565509
  82        -0.00322427
  83         0.00010059
  84         0.00001114
  85         0.00000000
  86         0.00052872
  87         0.00045675
  88         0.00000000
  89        -0.00145171
  90        -0.00126094
  91        -0.00150079
  92         0.00006540
  93         0.00000000
  94         0.00000000
  95        -0.00015650
  96         0.00122217
  97        -0.00015650
  98         0.00122217
Sym=     3a1 
Ene=   -11.2350
Spin= Alpha
Occup=    2.00000
   1         0.12402677
   2         0.00339060
   3        -0.00378241
   4         0.00045919
   5        -0.00015197
   6         0.00000000
   7         0.00004043
   8         0.00148020
   9         0.00000000
  10        -0.00013848
  11        -0.00000224
  12        -0.00022647
  13        -0.00015265
  14         0.00000000
  15         0.00000000
  16         0.12402677
  17         0.00339060
  18        -0.00378241
  19        -0.00045919
  20        -0.00015197
  21         0.00000000
  22        -0.00004043
  23         0.00148020
  24         0.00000000
  25        -0.00013848
  26        -0.00000224
  27        -0.00022647
  28         0.00015265
  29         0.00000000
  30         0.00000000
  31        -0.55047208
  32        -0.01512130
  33         0.00982358
  34         0.00076959
  35         0.00005330
  36         0.00000000
  37        -0.00222837
  38        -0.00037928
  39         0.00000000
  40         0.00115650
  41         0.00049280
  42         0.00122561
  43        -0.00001534
  44         0.00000000
  45         0.00000000
  46        -0.55047208
  47        -0.01512130
  48         0.00982358
  49        -0.00076959
  50         0.00005330
  51         0.00000000
  52         0.00222837
  53        -0.00037928
  54         0.00000000
  55         0.00115650
  56         0.00049280
  57         0.00122561
  58         0.00001534
  59         0.00000000
  60         0.00000000
  61         0.00000565
  62        -0.00001459
  63         0.00000565
  64        -0.00001459
  65         0.42162897
  66         0.01175143
  67        -0.00634179
  68         0.00047221
  69         0.00022136
  70         0.00000000
  71        -0.00024279
  72        -0.00175755
  73         0.00000000
  74        -0.00083930
  75        -0.00062104
  76        -0.00096504
  77         0.00016713
  78         0.00000000
  79         0.00000000
  80         0.42162897
  81         0.01175143
  82        -0.00634179
  83        -0.00047221
  84         0.00022136
  85         0.00000000
  86         0.00024279
  87        -0.00175755
  88         0.00000000
  89        -0.00083930
  90        -0.00062104
  91        -0.00096504
  92        -0.00016713
  93         0.00000000
  94         0.00000000
  95        -0.00007400
  96         0.00046748
  97        -0.00007400
  98         0.00046748
Sym=     4a1 
Ene=    -1.0873
Spin= Alpha
Occup=    2.00000
   1        -0.07600180
   2         0.14301141
   3         0.08678612
   4         0.05725742
   5        -0.07423427
   6         0.00000000
   7         0.02809702
   8        -0.00989037
   9         0.00000000
  10         0.00218179
  11         0.01105958
  12        -0.00706179
  13        -0.00196855
  14         0.00000000
  15         0.00000000
  16        -0.07600180
  17         0.14301141
  18         0.08678612
  19        -0.05725742
  20        -0.07423427
  21         0.00000000
  22        -0.02809702
  23        -0.00989037
  24         0.00000000
  25         0.00218179
  26         0.01105958
  27        -0.00706179
  28         0.00196855
  29         0.00000000
  30         0.00000000
  31        -0.11563171
  32         0.22503684
  33         0.15292694
  34        -0.07099224
  35         0.00173259
  36         0.00000000
  37        -0.01809600
  38        -0.00031227
  39         0.00000000
  40        -0.00313631
  41         0.01360179
  42        -0.00888782
  43         0.00000029
  44         0.00000000
  45         0.00000000
  46        -0.11563171
  47         0.22503684
  48         0.15292694
  49         0.07099224
  50         0.00173259
  51         0.00000000
  52         0.01809600
  53        -0.00031227
  54         0.00000000
  55        -0.00313631
  56         0.01360179
  57        -0.00888782
  58        -0.00000029
  59         0.00000000
  60         0.00000000
  61         0.04094107
  62         0.01353010
  63         0.04094107
  64         0.01353010
  65        -0.07439763
  66         0.13973227
  67         0.08393666
  68         0.05881837
  69         0.07249743
  70         0.00000000
  71         0.02871403
  72         0.00933508
  73         0.00000000
  74         0.00214271
  75         0.01103125
  76        -0.00695221
  77         0.00210648
  78         0.00000000
  79         0.00000000
  80        -0.07439763
  81         0.13973227
  82         0.08393666
  83        -0.05881837
  84         0.07249743
  85         0.00000000
  86        -0.02871403
  87         0.00933508
  88         0.00000000
  89         0.00214271
  90         0.01103125
  91        -0.00695221
  92        -0.00210648
  93         0.00000000
  94         0.00000000
  95         0.04048268
  96         0.01389571
  97         0.04048268
  98         0.01389571
Sym=     5a1 
Ene=    -0.9045
Spin= Alpha
Occup=    2.00000
   1         0.08963932
   2        -0.17062945
   3        -0.14628678
   4        -0.09696955
   5         0.00201015
   6         0.00000000
   7        -0.05456146
   8        -0.00616398
   9         0.00000000
  10        -0.00516342
  11        -0.01013111
  12         0.00767394
  13        -0.00139631
  14         0.00000000
  15         0.00000000
  16         0.08963932
  17        -0.17062945
  18        -0.14628678
  19         0.09696955
  20         0.00201015
  21         0.00000000
  22         0.05456146
  23        -0.00616398
  24         0.00000000
  25        -0.00516342
  26        -0.01013111
  27         0.00767394
  28         0.00139631
  29         0.00000000
  30         0.00000000
  31        -0.00006317
  32         0.00017120
  33         0.00141406
  34        -0.00099888
  35        -0.19662960
  36         0.00000000
  37        -0.00068269
  38        -0.02922790
  39         0.00000000
  40         0.00011368
  41         0.00018302
  42        -0.00007066
  43         0.01025230
  44         0.00000000
  45         0.00000000
  46        -0.00006317
  47         0.00017120
  48         0.00141406
  49         0.00099888
  50        -0.19662960
  51         0.00000000
  52         0.00068269
  53        -0.02922790
  54         0.00000000
  55         0.00011368
  56         0.00018302
  57        -0.00007066
  58        -0.01025230
  59         0.00000000
  60         0.00000000
  61        -0.09542539
  62        -0.03970297
  63        -0.09542539
  64        -0.03970297
  65        -0.09090219
  66         0.17263456
  67         0.14785756
  68         0.09950505
  69        -0.00162661
  70         0.00000000
  71         0.05663062
  72        -0.00798773
  73         0.00000000
  74         0.00509141
  75         0.01042642
  76        -0.00774497
  77        -0.00134659
  78         0.00000000
  79         0.00000000
  80        -0.09090219
  81         0.17263456
  82         0.14785756
  83        -0.09950505
  84        -0.00162661
  85         0.00000000
  86        -0.05663062
  87        -0.00798773
  88         0.00000000
  89         0.00509141
  90         0.01042642
  91        -0.00774497
  92         0.00134659
  93         0.00000000
  94         0.00000000
  95         0.09820087
  96         0.04137046
  97         0.09820087
  98         0.04137046
Sym=     6a1 
Ene=    -0.7390
Spin= Alpha
Occup=    2.00000
   1        -0.04041300
   2         0.07826195
   3         0.08627239
   4         0.05441352
   5         0.18864228
   6         0.00000000
   7         0.03562622
   8         0.07350322
   9         0.00000000
  10         0.00454440
  11         0.00488719
  12        -0.00301518
  13         0.00779314
  14         0.00000000
  15         0.00000000
  16        -0.04041300
  17         0.07826195
  18         0.08627239
  19        -0.05441352
  20         0.18864228
  21         0.00000000
  22        -0.03562622
  23         0.07350322
  24         0.00000000
  25         0.00454440
  26         0.00488719
  27        -0.00301518
  28        -0.00779314
  29         0.00000000
  30         0.00000000
  31         0.04391397
  32        -0.08818966
  33        -0.05704008
  34         0.07523036
  35         0.00469367
  36         0.00000000
  37         0.01105995
  38         0.00086432
  39         0.00000000
  40        -0.00617277
  41         0.00311262
  42         0.00341896
  43        -0.00030273
  44         0.00000000
  45         0.00000000
  46         0.04391397
  47        -0.08818966
  48        -0.05704008
  49        -0.07523036
  50         0.00469367
  51         0.00000000
  52        -0.01105995
  53         0.00086432
  54         0.00000000
  55        -0.00617277
  56         0.00311262
  57         0.00341896
  58         0.00030273
  59         0.00000000
  60         0.00000000
  61         0.13921761
  62         0.07539237
  63         0.13921761
  64         0.07539237
  65        -0.03871423
  66         0.07462777
  67         0.08212910
  68         0.05058979
  69        -0.19708799
  70         0.00000000
  71         0.03442259
  72        -0.07691265
  73         0.00000000
  74         0.00406587
  75         0.00508675
  76        -0.00287178
  77        -0.00752148
  78         0.00000000
  79         0.00000000
  80        -0.03871423
  81         0.07462777
  82         0.08212910
  83        -0.05058979
  84        -0.19708799
  85         0.00000000
  86        -0.03442259
  87        -0.07691265
  88         0.00000000
  89         0.00406587
  90         0.00508675
  91        -0.00287178
  92         0.00752148
  93         0.00000000
  94         0.00000000
  95         0.14081387
  96         0.07629316
  97         0.14081387
  98         0.07629316
Sym=     7a1 
Ene=    -0.6104
Spin= Alpha
Occup=    2.00000
   1        -0.00918917
   2         0.01986147
   3         0.02171452
   4        -0.00060944
   5        -0.24382105
   6         0.00000000
   7        -0.00473009
   8        -0.10492745
   9         0.00000000
  10         0.00055935
  11        -0.00647930
  12        -0.00012922
  13        -0.00997106
  14         0.00000000
  15         0.00000000
  16        -0.00918917
  17         0.01986147
  18         0.02171452
  19         0.00060944
  20        -0.24382105
  21         0.00000000
  22         0.00473009
  23        -0.10492745
  24         0.00000000
  25         0.00055935
  26        -0.00647930
  27        -0.00012922
  28         0.00997106
  29         0.00000000
  30         0.00000000
  31        -0.00101436
  32         0.00197161
  33         0.00121860
  34        -0.00056185
  35         0.22737691
  36         0.00000000
  37         0.00001643
  38         0.05652609
  39         0.00000000
  40        -0.00011085
  41        -0.00015479
  42        -0.00004934
  43        -0.01850917
  44         0.00000000
  45         0.00000000
  46        -0.00101436
  47         0.00197161
  48         0.00121860
  49         0.00056185
  50         0.22737691
  51         0.00000000
  52        -0.00001643
  53         0.05652609
  54         0.00000000
  55        -0.00011085
  56        -0.00015479
  57        -0.00004934
  58         0.01850917
  59         0.00000000
  60         0.00000000
  61        -0.12198553
  62        -0.08860184
  63        -0.12198553
  64        -0.08860184
  65         0.01055364
  66        -0.02280382
  67        -0.02631973
  68        -0.00424747
  69        -0.23804744
  70         0.00000000
  71         0.00148405
  72        -0.10258823
  73         0.00000000
  74        -0.00103722
  75         0.00659246
  76         0.00017622
  77        -0.00891873
  78         0.00000000
  79         0.00000000
  80         0.01055364
  81        -0.02280382
  82        -0.02631973
  83         0.00424747
  84        -0.23804744
  85         0.00000000
  86        -0.00148405
  87        -0.10258823
  88         0.00000000
  89        -0.00103722
  90         0.00659246
  91         0.00017622
  92         0.00891873
  93         0.00000000
  94         0.00000000
  95         0.11661113
  96         0.08459114
  97         0.11661113
  98         0.08459114
Sym=     8a1 
Ene=    -0.7036
Spin= Alpha
Occup=    1.97740
   1        -0.00021977
   2        -0.00037347
   3         0.00131832
   4         0.00032441
   5        -0.00798829
   6         0.00000000
   7        -0.00334169
   8        -0.00374809
   9         0.00000000
  10        -0.00014152
  11        -0.00014022
  12         0.00034101
  13        -0.00132777
  14         0.00000000
  15         0.00000000
  16        -0.00021977
  17        -0.00037347
  18         0.00131832
  19        -0.00032441
  20        -0.00798829
  21         0.00000000
  22         0.00334169
  23        -0.00374809
  24         0.00000000
  25        -0.00014152
  26        -0.00014022
  27         0.00034101
  28         0.00132777
  29         0.00000000
  30         0.00000000
  31        -0.03612170
  32         0.07902444
  33         0.08548686
  34         0.03973782
  35        -0.05599095
  36         0.00000000
  37         0.00884532
  38        -0.02035526
  39         0.00000000
  40        -0.00802779
  41         0.00592705
  42        -0.00037460
  43        -0.00508029
  44         0.00000000
  45         0.00000000
  46        -0.03612170
  47         0.07902444
  48         0.08548686
  49        -0.03973782
  50        -0.05599095
  51         0.00000000
  52        -0.00884532
  53        -0.02035526
  54         0.00000000
  55        -0.00802779
  56         0.00592705
  57        -0.00037460
  58         0.00508029
  59         0.00000000
  60         0.00000000
  61        -0.00546729
  62        -0.00404357
  63        -0.00546729
  64        -0.00404357
  65         0.08753671
  66        -0.17967424
  67        -0.12450577
  68         0.38041484
  69         0.00515974
  70         0.00000000
  71         0.13789403
  72        -0.00608251
  73         0.00000000
  74        -0.01827658
  75         0.01458828
  76         0.00586427
  77         0.00307777
  78         0.00000000
  79         0.00000000
  80         0.08753671
  81        -0.17967424
  82        -0.12450577
  83        -0.38041484
  84         0.00515974
  85         0.00000000
  86        -0.13789403
  87        -0.00608251
  88         0.00000000
  89        -0.01827658
  90         0.01458828
  91         0.00586427
  92        -0.00307777
  93         0.00000000
  94         0.00000000
  95         0.04582087
  96         0.05917469
  97         0.04582087
  98         0.05917469
Sym=     9a1 
Ene=    -0.0067
Spin= Alpha
Occup=    1.97507
   1         0.08441626
   2        -0.17435295
   3        -0.12936438
   4         0.37704640
   5        -0.00942074
   6         0.00000000
   7         0.14398759
   8         0.00528450
   9         0.00000000
  10        -0.01878123
  11         0.01373210
  12         0.00550096
  13        -0.00274626
  14         0.00000000
  15         0.00000000
  16         0.08441626
  17        -0.17435295
  18        -0.12936438
  19        -0.37704640
  20        -0.00942074
  21         0.00000000
  22        -0.14398759
  23         0.00528450
  24         0.00000000
  25        -0.01878123
  26         0.01373210
  27         0.00550096
  28         0.00274626
  29         0.00000000
  30         0.00000000
  31        -0.03486972
  32         0.07589914
  33         0.08337481
  34         0.04092188
  35         0.05969076
  36         0.00000000
  37         0.00921972
  38         0.02032787
  39         0.00000000
  40        -0.00742884
  41         0.00578499
  42        -0.00043366
  43         0.00553150
  44         0.00000000
  45         0.00000000
  46        -0.03486972
  47         0.07589914
  48         0.08337481
  49        -0.04092188
  50         0.05969076
  51         0.00000000
  52        -0.00921972
  53         0.02032787
  54         0.00000000
  55        -0.00742884
  56         0.00578499
  57        -0.00043366
  58        -0.00553150
  59         0.00000000
  60         0.00000000
  61         0.04610766
  62         0.05739223
  63         0.04610766
  64         0.05739223
  65        -0.00626065
  66         0.01227391
  67         0.00891431
  68        -0.02540923
  69         0.00804401
  70         0.00000000
  71        -0.01307321
  72         0.00402816
  73         0.00000000
  74         0.00123209
  75        -0.00126931
  76        -0.00005113
  77         0.00124365
  78         0.00000000
  79         0.00000000
  80        -0.00626065
  81         0.01227391
  82         0.00891431
  83         0.02540923
  84         0.00804401
  85         0.00000000
  86         0.01307321
  87         0.00402816
  88         0.00000000
  89         0.00123209
  90        -0.00126931
  91        -0.00005113
  92        -0.00124365
  93         0.00000000
  94         0.00000000
  95        -0.00893104
  96        -0.00859749
  97        -0.00893104
  98        -0.00859749
Sym=    10a1 
Ene=    -0.1309
Spin= Alpha
Occup=    0.69746
   1        -0.00254379
   2         0.00559207
   3        -0.01399089
   4         0.13963700
   5        -0.04704239
   6         0.00000000
   7         0.10337210
   8         0.01024112
   9         0.00000000
  10        -0.01219581
  11         0.01654362
  12        -0.00152242
  13         0.00994870
  14         0.00000000
  15         0.00000000
  16        -0.00254379
  17         0.00559207
  18        -0.01399089
  19        -0.13963700
  20        -0.04704239
  21         0.00000000
  22        -0.10337210
  23         0.01024112
  24         0.00000000
  25        -0.01219581
  26         0.01654362
  27        -0.00152242
  28        -0.00994870
  29         0.00000000
  30         0.00000000
  31         0.05792160
  32        -0.13050331
  33        -0.23226786
  34        -0.40347341
  35         0.00377804
  36         0.00000000
  37        -0.31071976
  38         0.00157430
  39         0.00000000
  40        -0.01393860
  41         0.01861840
  42         0.00025543
  43         0.00023728
  44         0.00000000
  45         0.00000000
  46         0.05792160
  47        -0.13050331
  48        -0.23226786
  49         0.40347341
  50         0.00377804
  51         0.00000000
  52         0.31071976
  53         0.00157430
  54         0.00000000
  55        -0.01393860
  56         0.01861840
  57         0.00025543
  58        -0.00023728
  59         0.00000000
  60         0.00000000
  61         0.05061500
  62         0.04895730
  63         0.05061500
  64         0.04895730
  65        -0.00257075
  66         0.00543265
  67        -0.01090977
  68         0.13786050
  69         0.04592046
  70         0.00000000
  71         0.09948000
  72        -0.01052128
  73         0.00000000
  74        -0.01188994
  75         0.01654588
  76        -0.00135739
  77        -0.00948725
  78         0.00000000
  79         0.00000000
  80        -0.00257075
  81         0.00543265
  82        -0.01090977
  83        -0.13786050
  84         0.04592046
  85         0.00000000
  86        -0.09948000
  87        -0.01052128
  88         0.00000000
  89        -0.01188994
  90         0.01654588
  91        -0.00135739
  92         0.00948725
  93         0.00000000
  94         0.00000000
  95         0.04947258
  96         0.04878602
  97         0.04947258
  98         0.04878602
Sym=    11a1 
Ene=     0.2652
Spin= Alpha
Occup=    0.00000
   1        -0.05006293
   2         0.07673636
   3         0.72409256
   4         0.09258487
   5         0.07310806
   6         0.00000000
   7         0.35488097
   8         0.39315598
   9         0.00000000
  10         0.00504398
  11        -0.00938542
  12         0.00074319
  13        -0.00540960
  14         0.00000000
  15         0.00000000
  16        -0.05006293
  17         0.07673636
  18         0.72409256
  19        -0.09258487
  20         0.07310806
  21         0.00000000
  22        -0.35488097