[Molden Format]
[N_Atoms]
                   10
[Atoms] (AU)
C1          1      6           1.79524001      2.28645904      0.00000000
C1          2      6          -1.79524001      2.28645904      0.00000000
C2          3      6           2.63580888      0.00440637      0.00000000
C2          4      6          -2.63580888      0.00440637      0.00000000
H3          5      1          -2.48729252      4.17771050      0.00000000
H3          6      1           2.48729252      4.17771050      0.00000000
C4          7      6           1.32908898     -2.32423973      0.00000000
C4          8      6          -1.32908898     -2.32423973      0.00000000
H5          9      1           2.30590816     -4.10139748      0.00000000
H5         10      1          -2.30590816     -4.10139748      0.00000000
[Charge] (Mulliken)
   0.0000000000000000     
   0.0000000000000000     
   0.0000000000000000     
   0.0000000000000000     
   0.0000000000000000     
   0.0000000000000000     
   0.0000000000000000     
   0.0000000000000000     
   0.0000000000000000     
   0.0000000000000000     
[GTO] (AU)
   1
   s   6
  3.047524880E+03  1.834737132E-03
  4.573695180E+02  1.403732281E-02
  1.039486850E+02  6.884262227E-02
  2.921015530E+01  2.321844432E-01
  9.286662960E+00  4.679413484E-01
  3.163926960E+00  3.623119853E-01
   s   3
  7.868272350E+00 -1.193324198E-01
  1.881288540E+00 -1.608541517E-01
  5.442492580E-01  1.143456438E+00
   s   1
  1.687144782E-01  1.000000000E+00
   p   3
  7.868272350E+00  6.899906659E-02
  1.881288540E+00  3.164239610E-01
  5.442492580E-01  7.443082909E-01
   p   1
  1.687144782E-01  1.000000000E+00
   d   1
  8.000000000E-01  1.000000000E+00
 
   2
   s   6
  3.047524880E+03  1.834737132E-03
  4.573695180E+02  1.403732281E-02
  1.039486850E+02  6.884262227E-02
  2.921015530E+01  2.321844432E-01
  9.286662960E+00  4.679413484E-01
  3.163926960E+00  3.623119853E-01
   s   3
  7.868272350E+00 -1.193324198E-01
  1.881288540E+00 -1.608541517E-01
  5.442492580E-01  1.143456438E+00
   s   1
  1.687144782E-01  1.000000000E+00
   p   3
  7.868272350E+00  6.899906659E-02
  1.881288540E+00  3.164239610E-01
  5.442492580E-01  7.443082909E-01
   p   1
  1.687144782E-01  1.000000000E+00
   d   1
  8.000000000E-01  1.000000000E+00
 
   3
   s   6
  3.047524880E+03  1.834737132E-03
  4.573695180E+02  1.403732281E-02
  1.039486850E+02  6.884262227E-02
  2.921015530E+01  2.321844432E-01
  9.286662960E+00  4.679413484E-01
  3.163926960E+00  3.623119853E-01
   s   3
  7.868272350E+00 -1.193324198E-01
  1.881288540E+00 -1.608541517E-01
  5.442492580E-01  1.143456438E+00
   s   1
  1.687144782E-01  1.000000000E+00
   p   3
  7.868272350E+00  6.899906659E-02
  1.881288540E+00  3.164239610E-01
  5.442492580E-01  7.443082909E-01
   p   1
  1.687144782E-01  1.000000000E+00
   d   1
  8.000000000E-01  1.000000000E+00
 
   4
   s   6
  3.047524880E+03  1.834737132E-03
  4.573695180E+02  1.403732281E-02
  1.039486850E+02  6.884262227E-02
  2.921015530E+01  2.321844432E-01
  9.286662960E+00  4.679413484E-01
  3.163926960E+00  3.623119853E-01
   s   3
  7.868272350E+00 -1.193324198E-01
  1.881288540E+00 -1.608541517E-01
  5.442492580E-01  1.143456438E+00
   s   1
  1.687144782E-01  1.000000000E+00
   p   3
  7.868272350E+00  6.899906659E-02
  1.881288540E+00  3.164239610E-01
  5.442492580E-01  7.443082909E-01
   p   1
  1.687144782E-01  1.000000000E+00
   d   1
  8.000000000E-01  1.000000000E+00
 
   5
   s   3
  1.873113696E+01  3.349460434E-02
  2.825394365E+00  2.347269535E-01
  6.401216923E-01  8.137573261E-01
   s   1
  1.612777588E-01  1.000000000E+00
 
   6
   s   3
  1.873113696E+01  3.349460434E-02
  2.825394365E+00  2.347269535E-01
  6.401216923E-01  8.137573261E-01
   s   1
  1.612777588E-01  1.000000000E+00
 
   7
   s   6
  3.047524880E+03  1.834737132E-03
  4.573695180E+02  1.403732281E-02
  1.039486850E+02  6.884262227E-02
  2.921015530E+01  2.321844432E-01
  9.286662960E+00  4.679413484E-01
  3.163926960E+00  3.623119853E-01
   s   3
  7.868272350E+00 -1.193324198E-01
  1.881288540E+00 -1.608541517E-01
  5.442492580E-01  1.143456438E+00
   s   1
  1.687144782E-01  1.000000000E+00
   p   3
  7.868272350E+00  6.899906659E-02
  1.881288540E+00  3.164239610E-01
  5.442492580E-01  7.443082909E-01
   p   1
  1.687144782E-01  1.000000000E+00
   d   1
  8.000000000E-01  1.000000000E+00
 
   8
   s   6
  3.047524880E+03  1.834737132E-03
  4.573695180E+02  1.403732281E-02
  1.039486850E+02  6.884262227E-02
  2.921015530E+01  2.321844432E-01
  9.286662960E+00  4.679413484E-01
  3.163926960E+00  3.623119853E-01
   s   3
  7.868272350E+00 -1.193324198E-01
  1.881288540E+00 -1.608541517E-01
  5.442492580E-01  1.143456438E+00
   s   1
  1.687144782E-01  1.000000000E+00
   p   3
  7.868272350E+00  6.899906659E-02
  1.881288540E+00  3.164239610E-01
  5.442492580E-01  7.443082909E-01
   p   1
  1.687144782E-01  1.000000000E+00
   d   1
  8.000000000E-01  1.000000000E+00
 
   9
   s   3
  1.873113696E+01  3.349460434E-02
  2.825394365E+00  2.347269535E-01
  6.401216923E-01  8.137573261E-01
   s   1
  1.612777588E-01  1.000000000E+00
 
  10
   s   3
  1.873113696E+01  3.349460434E-02
  2.825394365E+00  2.347269535E-01
  6.401216923E-01  8.137573261E-01
   s   1
  1.612777588E-01  1.000000000E+00
 
[MO]
Sym=     1a1 
Ene=   -11.3550
Spin= Alpha
Occup=    2.00000
   1         0.33858586
   2         0.00749166
   3         0.00109338
   4         0.00000390
   5        -0.00144896
   6         0.00000000
   7         0.00000244
   8        -0.00090488
   9         0.00000000
  10         0.00000000
  11        -0.00000000
  12        -0.00000000
  13         0.00000000
  14         0.00000000
  15         0.00000000
  16         0.33858586
  17         0.00749166
  18         0.00109338
  19        -0.00000390
  20        -0.00144896
  21         0.00000000
  22        -0.00000244
  23        -0.00090488
  24         0.00000000
  25         0.00000000
  26        -0.00000000
  27        -0.00000000
  28        -0.00000000
  29         0.00000000
  30         0.00000000
  31         0.45208749
  32         0.00983429
  33         0.00127203
  34        -0.00109806
  35         0.00005043
  36         0.00000000
  37        -0.00068574
  38         0.00003149
  39         0.00000000
  40        -0.00000000
  41        -0.00000000
  42        -0.00000000
  43        -0.00000000
  44         0.00000000
  45         0.00000000
  46         0.45208749
  47         0.00983429
  48         0.00127203
  49         0.00109806
  50         0.00005043
  51         0.00000000
  52         0.00068574
  53         0.00003149
  54         0.00000000
  55        -0.00000000
  56        -0.00000000
  57        -0.00000000
  58         0.00000000
  59         0.00000000
  60         0.00000000
  61         0.00080168
  62         0.00089512
  63         0.00080168
  64         0.00089512
  65         0.41635206
  66         0.00922614
  67         0.00135987
  68        -0.00061662
  69         0.00113220
  70         0.00000000
  71        -0.00038508
  72         0.00070706
  73         0.00000000
  74        -0.00000000
  75        -0.00000000
  76        -0.00000000
  77         0.00000000
  78         0.00000000
  79         0.00000000
  80         0.41635206
  81         0.00922614
  82         0.00135987
  83         0.00061662
  84         0.00113220
  85         0.00000000
  86         0.00038508
  87         0.00070706
  88         0.00000000
  89        -0.00000000
  90        -0.00000000
  91        -0.00000000
  92        -0.00000000
  93         0.00000000
  94         0.00000000
  95         0.00102760
  96         0.00114737
  97         0.00102760
  98         0.00114737
Sym=     2a1 
Ene=   -11.3450
Spin= Alpha
Occup=    2.00000
   1        -0.41506555
   2        -0.00818995
   3        -0.00023376
   4         0.00017702
   5         0.00031199
   6         0.00000000
   7         0.00011055
   8         0.00019484
   9         0.00000000
  10         0.00000000
  11         0.00000000
  12         0.00000000
  13         0.00000000
  14         0.00000000
  15         0.00000000
  16        -0.41506555
  17        -0.00818995
  18        -0.00023376
  19        -0.00017702
  20         0.00031199
  21         0.00000000
  22        -0.00011055
  23         0.00019484
  24         0.00000000
  25         0.00000000
  26         0.00000000
  27         0.00000000
  28        -0.00000000
  29         0.00000000
  30         0.00000000
  31        -0.18365530
  32        -0.00336051
  33         0.00018974
  34        -0.00023899
  35        -0.00231867
  36         0.00000000
  37        -0.00014925
  38        -0.00144801
  39         0.00000000
  40         0.00000000
  41         0.00000000
  42         0.00000000
  43        -0.00000000
  44         0.00000000
  45         0.00000000
  46        -0.18365530
  47        -0.00336051
  48         0.00018974
  49         0.00023899
  50        -0.00231867
  51         0.00000000
  52         0.00014925
  53        -0.00144801
  54         0.00000000
  55         0.00000000
  56         0.00000000
  57         0.00000000
  58         0.00000000
  59         0.00000000
  60         0.00000000
  61        -0.00090504
  62        -0.00101052
  63        -0.00090504
  64        -0.00101052
  65         0.53676320
  66         0.01040872
  67         0.00009907
  68        -0.00138949
  69        -0.00055782
  70         0.00000000
  71        -0.00086773
  72        -0.00034836
  73         0.00000000
  74        -0.00000000
  75        -0.00000000
  76        -0.00000000
  77        -0.00000000
  78         0.00000000
  79         0.00000000
  80         0.53676320
  81         0.01040872
  82         0.00009907
  83         0.00138949
  84        -0.00055782
  85         0.00000000
  86         0.00086773
  87        -0.00034836
  88         0.00000000
  89        -0.00000000
  90        -0.00000000
  91        -0.00000000
  92         0.00000000
  93         0.00000000
  94         0.00000000
  95         0.00114886
  96         0.00128277
  97         0.00114886
  98         0.00128277
Sym=     3a1 
Ene=   -11.3270
Spin= Alpha
Occup=    2.00000
   1        -0.45567595
   2        -0.00764406
   3         0.00124330
   4         0.00084154
   5        -0.00133152
   6         0.00000000
   7         0.00052554
   8        -0.00083154
   9         0.00000000
  10        -0.00000000
  11        -0.00000000
  12        -0.00000000
  13         0.00000000
  14         0.00000000
  15         0.00000000
  16        -0.45567595
  17        -0.00764406
  18         0.00124330
  19        -0.00084154
  20        -0.00133152
  21         0.00000000
  22        -0.00052554
  23        -0.00083154
  24         0.00000000
  25        -0.00000000
  26        -0.00000000
  27        -0.00000000
  28        -0.00000000
  29         0.00000000
  30         0.00000000
  31         0.50661723
  32         0.00813627
  33        -0.00178570
  34         0.00069005
  35        -0.00087010
  36         0.00000000
  37         0.00043094
  38        -0.00054337
  39         0.00000000
  40         0.00000000
  41         0.00000000
  42         0.00000000
  43        -0.00000000
  44         0.00000000
  45         0.00000000
  46         0.50661723
  47         0.00813627
  48        -0.00178570
  49        -0.00069005
  50        -0.00087010
  51         0.00000000
  52        -0.00043094
  53        -0.00054337
  54         0.00000000
  55         0.00000000
  56         0.00000000
  57         0.00000000
  58         0.00000000
  59         0.00000000
  60         0.00000000
  61        -0.00084785
  62        -0.00094666
  63        -0.00084785
  64        -0.00094666
  65        -0.17934434
  66        -0.00282405
  67         0.00069474
  68         0.00085160
  69         0.00092051
  70         0.00000000
  71         0.00053182
  72         0.00057486
  73         0.00000000
  74        -0.00000000
  75        -0.00000000
  76         0.00000000
  77        -0.00000000
  78         0.00000000
  79         0.00000000
  80        -0.17934434
  81        -0.00282405
  82         0.00069474
  83        -0.00085160
  84         0.00092051
  85         0.00000000
  86        -0.00053182
  87         0.00057486
  88         0.00000000
  89        -0.00000000
  90        -0.00000000
  91         0.00000000
  92         0.00000000
  93         0.00000000
  94         0.00000000
  95        -0.00028257
  96        -0.00031550
  97        -0.00028257
  98        -0.00031550
Sym=     4a1 
Ene=    -1.6465
Spin= Alpha
Occup=    2.00000
   1        -0.07714236
   2         0.09882196
   3         0.11167558
   4        -0.02421228
   5        -0.04405440
   6         0.00000000
   7        -0.01512055
   8        -0.02751195
   9         0.00000000
  10        -0.00000000
  11         0.00000000
  12        -0.00000000
  13        -0.00000000
  14         0.00000000
  15         0.00000000
  16        -0.07714236
  17         0.09882196
  18         0.11167558
  19         0.02421228
  20        -0.04405440
  21         0.00000000
  22         0.01512055
  23        -0.02751195
  24         0.00000000
  25        -0.00000000
  26         0.00000000
  27        -0.00000000
  28         0.00000000
  29         0.00000000
  30         0.00000000
  31        -0.09525308
  32         0.11836280
  33         0.13381921
  34        -0.05750130
  35        -0.00730735
  36         0.00000000
  37        -0.03590953
  38        -0.00456344
  39         0.00000000
  40         0.00000000
  41        -0.00000000
  42         0.00000000
  43        -0.00000000
  44         0.00000000
  45         0.00000000
  46        -0.09525308
  47         0.11836280
  48         0.13381921
  49         0.05750130
  50        -0.00730735
  51         0.00000000
  52         0.03590953
  53        -0.00456344
  54         0.00000000
  55         0.00000000
  56        -0.00000000
  57         0.00000000
  58         0.00000000
  59         0.00000000
  60         0.00000000
  61         0.02842615
  62         0.03173927
  63         0.02842615
  64         0.03173927
  65        -0.11258983
  66         0.13829552
  67         0.15638258
  68        -0.03266704
  69         0.03892484
  70         0.00000000
  71        -0.02040055
  72         0.02430854
  73         0.00000000
  74        -0.00000000
  75         0.00000000
  76        -0.00000000
  77         0.00000000
  78         0.00000000
  79         0.00000000
  80        -0.11258983
  81         0.13829552
  82         0.15638258
  83         0.03266704
  84         0.03892484
  85         0.00000000
  86         0.02040055
  87         0.02430854
  88         0.00000000
  89        -0.00000000
  90         0.00000000
  91        -0.00000000
  92        -0.00000000
  93         0.00000000
  94         0.00000000
  95         0.04581347
  96         0.05115311
  97         0.04581347
  98         0.05115311
Sym=     5a1 
Ene=    -1.3027
Spin= Alpha
Occup=    2.00000
   1        -0.10994866
   2         0.14945735
   3         0.16875317
   4        -0.01817520
   5         0.01849672
   6         0.00000000
   7        -0.01135040
   8         0.01155119
   9         0.00000000
  10        -0.00000000
  11         0.00000000
  12        -0.00000000
  13        -0.00000000
  14         0.00000000
  15         0.00000000
  16        -0.10994866
  17         0.14945735
  18         0.16875317
  19         0.01817520
  20         0.01849672
  21         0.00000000
  22         0.01135040
  23         0.01155119
  24         0.00000000
  25        -0.00000000
  26         0.00000000
  27        -0.00000000
  28         0.00000000
  29         0.00000000
  30         0.00000000
  31        -0.02755271
  32         0.03537852
  33         0.03997876
  34        -0.00548859
  35         0.09885881
  36         0.00000000
  37        -0.00342762
  38         0.06173727
  39         0.00000000
  40         0.00000000
  41         0.00000000
  42         0.00000000
  43        -0.00000000
  44         0.00000000
  45         0.00000000
  46        -0.02755271
  47         0.03537852
  48         0.03997876
  49         0.00548859
  50         0.09885881
  51         0.00000000
  52         0.00342762
  53         0.06173727
  54         0.00000000
  55         0.00000000
  56         0.00000000
  57         0.00000000
  58         0.00000000
  59         0.00000000
  60         0.00000000
  61         0.07793376
  62         0.08701707
  63         0.07793376
  64         0.08701707
  65         0.09706942
  66        -0.12740856
  67        -0.14392927
  68         0.02981447
  69         0.05790092
  70         0.00000000
  71         0.01861912
  72         0.03615910
  73         0.00000000
  74        -0.00000000
  75        -0.00000000
  76        -0.00000000
  77         0.00000000
  78         0.00000000
  79         0.00000000
  80         0.09706942
  81        -0.12740856
  82        -0.14392927
  83        -0.02981447
  84         0.05790092
  85         0.00000000
  86        -0.01861912
  87         0.03615910
  88         0.00000000
  89        -0.00000000
  90        -0.00000000
  91        -0.00000000
  92        -0.00000000
  93         0.00000000
  94         0.00000000
  95        -0.07710284
  96        -0.08608931
  97        -0.07710284
  98        -0.08608931
Sym=     6a1 
Ene=    -0.9526
Spin= Alpha
Occup=    2.00000
   1        -0.04377424
   2         0.07493480
   3         0.08436633
   4         0.00250224
   5         0.15948626
   6         0.00000000
   7         0.00156265
   8         0.09959908
   9         0.00000000
  10        -0.00000000
  11        -0.00000000
  12        -0.00000000
  13         0.00000000
  14         0.00000000
  15         0.00000000
  16        -0.04377424
  17         0.07493480
  18         0.08436633
  19        -0.00250224
  20         0.15948626
  21         0.00000000
  22        -0.00156265
  23         0.09959908
  24         0.00000000
  25        -0.00000000
  26        -0.00000000
  27        -0.00000000
  28        -0.00000000
  29         0.00000000
  30         0.00000000
  31         0.06761714
  32        -0.08532908
  33        -0.09644926
  34         0.04803729
  35         0.02127897
  36         0.00000000
  37         0.02999926
  38         0.01328870
  39         0.00000000
  40         0.00000000
  41         0.00000000
  42         0.00000000
  43        -0.00000000
  44         0.00000000
  45         0.00000000
  46         0.06761714
  47        -0.08532908
  48        -0.09644926
  49        -0.04803729
  50         0.02127897
  51         0.00000000
  52        -0.02999926
  53         0.01328870
  54         0.00000000
  55         0.00000000
  56         0.00000000
  57         0.00000000
  58         0.00000000
  59         0.00000000
  60         0.00000000
  61         0.11671721
  62         0.13032081
  63         0.11671721
  64         0.13032081
  65        -0.02784926
  66         0.04585580
  67         0.05165008
  68        -0.01714673
  69        -0.16731306
  70         0.00000000
  71        -0.01070812
  72        -0.10448692
  73         0.00000000
  74         0.00000000
  75        -0.00000000
  76        -0.00000000
  77         0.00000000
  78         0.00000000
  79         0.00000000
  80        -0.02784926
  81         0.04585580
  82         0.05165008
  83         0.01714673
  84        -0.16731306
  85         0.00000000
  86         0.01070812
  87        -0.10448692
  88         0.00000000
  89         0.00000000
  90        -0.00000000
  91        -0.00000000
  92        -0.00000000
  93         0.00000000
  94         0.00000000
  95         0.09458843
  96         0.10561288
  97         0.09458843
  98         0.10561288
Sym=     7a1 
Ene=    -0.7774
Spin= Alpha
Occup=    2.00000
   1         0.00479505
   2        -0.00772920
   3        -0.00870801
   4         0.19209331
   5        -0.04043230
   6         0.00000000
   7         0.11996217
   8        -0.02524995
   9         0.00000000
  10         0.00000000
  11         0.00000000
  12         0.00000000
  13        -0.00000000
  14         0.00000000
  15         0.00000000
  16         0.00479505
  17        -0.00772920
  18        -0.00870801
  19        -0.19209331
  20        -0.04043230
  21         0.00000000
  22        -0.11996217
  23        -0.02524995
  24         0.00000000
  25         0.00000000
  26         0.00000000
  27         0.00000000
  28         0.00000000
  29         0.00000000
  30         0.00000000
  31        -0.08325218
  32         0.14582016
  33         0.16413223
  34         0.17333008
  35         0.00540441
  36         0.00000000
  37         0.10824454
  38         0.00337505
  39         0.00000000
  40        -0.00000000
  41        -0.00000000
  42        -0.00000000
  43        -0.00000000
  44         0.00000000
  45         0.00000000
  46        -0.08325218
  47         0.14582016
  48         0.16413223
  49        -0.17333008
  50         0.00540441
  51         0.00000000
  52        -0.10824454
  53         0.00337505
  54         0.00000000
  55        -0.00000000
  56        -0.00000000
  57        -0.00000000
  58         0.00000000
  59         0.00000000
  60         0.00000000
  61         0.00808983
  62         0.00903271
  63         0.00808983
  64         0.00903271
  65         0.02246902
  66        -0.01988611
  67        -0.02262134
  68         0.18024807
  69        -0.04043507
  70         0.00000000
  71         0.11256482
  72        -0.02525168
  73         0.00000000
  74        -0.00000000
  75        -0.00000000
  76        -0.00000000
  77         0.00000000
  78         0.00000000
  79         0.00000000
  80         0.02246902
  81        -0.01988611
  82        -0.02262134
  83        -0.18024807
  84        -0.04043507
  85         0.00000000
  86        -0.11256482
  87        -0.02525168
  88         0.00000000
  89        -0.00000000
  90        -0.00000000
  91        -0.00000000
  92        -0.00000000
  93         0.00000000
  94         0.00000000
  95         0.05842626
  96         0.06523594
  97         0.05842626
  98         0.06523594
Sym=     8a1 
Ene=    -0.6218
Spin= Alpha
Occup=    2.00000
   1         0.03466527
   2        -0.04355722
   3        -0.04923684
   4        -0.03846432
   5         0.19250891
   6         0.00000000
   7        -0.02402095
   8         0.12022171
   9         0.00000000
  10         0.00000000
  11         0.00000000
  12         0.00000000
  13         0.00000000
  14         0.00000000
  15         0.00000000
  16         0.03466527
  17        -0.04355722
  18        -0.04923684
  19         0.03846432
  20         0.19250891
  21         0.00000000
  22         0.02402095
  23         0.12022171
  24         0.00000000
  25         0.00000000
  26         0.00000000
  27         0.00000000
  28        -0.00000000
  29         0.00000000
  30         0.00000000
  31        -0.00225012
  32         0.01636936
  33         0.01827314
  34         0.01311441
  35        -0.23945289
  36         0.00000000
  37         0.00818994
  38        -0.14953821
  39         0.00000000
  40        -0.00000000
  41        -0.00000000
  42        -0.00000000
  43        -0.00000000
  44         0.00000000
  45         0.00000000
  46        -0.00225012
  47         0.01636936
  48         0.01827314
  49        -0.01311441
  50        -0.23945289
  51         0.00000000
  52        -0.00818994
  53        -0.14953821
  54         0.00000000
  55        -0.00000000
  56        -0.00000000
  57        -0.00000000
  58         0.00000000
  59         0.00000000
  60         0.00000000
  61         0.09532155
  62         0.10643145
  63         0.09532155
  64         0.10643145
  65        -0.01961805
  66         0.03512925
  67         0.03953139
  68         0.12477472
  69         0.18209229
  70         0.00000000
  71         0.07792175
  72         0.11371654
  73         0.00000000
  74         0.00000000
  75        -0.00000000
  76         0.00000000
  77        -0.00000000
  78         0.00000000
  79         0.00000000
  80        -0.01961805
  81         0.03512925
  82         0.03953139
  83        -0.12477472
  84         0.18209229
  85         0.00000000
  86        -0.07792175
  87         0.11371654
  88         0.00000000
  89         0.00000000
  90        -0.00000000
  91         0.00000000
  92         0.00000000
  93         0.00000000
  94         0.00000000
  95        -0.04913273
  96        -0.05485923
  97        -0.04913273
  98        -0.05485923
Sym=     9a1 
Ene=    -0.5888
Spin= Alpha
Occup=    2.00000
   1        -0.02049440
   2         0.05259742
   3         0.05899850
   4        -0.26301297
   5        -0.05882289
   6         0.00000000
   7        -0.16425146
   8        -0.03673487
   9         0.00000000
  10         0.00000000
  11        -0.00000000
  12         0.00000000
  13         0.00000000
  14         0.00000000
  15         0.00000000
  16        -0.02049440
  17         0.05259742
  18         0.05899850
  19         0.26301297
  20        -0.05882289
  21         0.00000000
  22         0.16425146
  23        -0.03673487
  24         0.00000000
  25         0.00000000
  26        -0.00000000
  27         0.00000000
  28        -0.00000000
  29         0.00000000
  30         0.00000000
  31         0.00173498
  32        -0.00349459
  33        -0.00392788
  34        -0.04646513
  35        -0.04094783
  36         0.00000000
  37        -0.02901745
  38        -0.02557190
  39         0.00000000
  40         0.00000000
  41         0.00000000
  42        -0.00000000
  43        -0.00000000
  44         0.00000000
  45         0.00000000
  46         0.00173498
  47        -0.00349459
  48        -0.00392788
  49         0.04646513
  50        -0.04094783
  51         0.00000000
  52         0.02901745
  53        -0.02557190
  54         0.00000000
  55         0.00000000
  56         0.00000000
  57        -0.00000000
  58         0.00000000
  59         0.00000000
  60         0.00000000
  61        -0.07172626
  62        -0.08008608
  63        -0.07172626
  64        -0.08008608
  65         0.03744072
  66        -0.06393206
  67        -0.07198076
  68         0.24597782
  69        -0.08305602
  70         0.00000000
  71         0.15361302
  72        -0.05186844
  73         0.00000000
  74        -0.00000000
  75         0.00000000
  76        -0.00000000
  77         0.00000000
  78         0.00000000
  79         0.00000000
  80         0.03744072
  81        -0.06393206
  82        -0.07198076
  83        -0.24597782
  84        -0.08305602
  85         0.00000000
  86        -0.15361302
  87        -0.05186844
  88         0.00000000
  89        -0.00000000
  90         0.00000000
  91        -0.00000000
  92        -0.00000000
  93         0.00000000
  94         0.00000000
  95         0.10206180
  96         0.11395728
  97         0.10206180
  98         0.11395728
Sym=    10a1 
Ene=    -0.3319
Spin= Alpha
Occup=    0.00000
   1        -0.00052663
   2        -0.03625137
   3        -0.04034951
   4         0.25288824
   5        -0.03744759
   6         0.00000000
   7         0.15792857
   8        -0.02338600
   9         0.00000000
  10        -0.00000000
  11        -0.00000000
  12        -0.00000000
  13        -0.00000000
  14         0.00000000
  15         0.00000000
  16        -0.00052663
  17        -0.03625137
  18        -0.04034951
  19        -0.25288824
  20        -0.03744759
  21         0.00000000
  22        -0.15792857
  23        -0.02338600
  24         0.00000000
  25        -0.00000000
  26        -0.00000000
  27        -0.00000000
  28         0.00000000
  29         0.00000000
  30         0.00000000
  31         0.02727199
  32        -0.12295864
  33        -0.13748087
  34        -0.40993117
  35         0.04830875
  36         0.00000000
  37        -0.25600180
  38         0.03016879
  39         0.00000000
  40         0.00000000
  41         0.00000000
  42         0.00000000
  43         0.00000000
  44         0.00000000
  45         0.00000000
  46         0.02727199
  47        -0.12295864
  48        -0.13748087
  49         0.40993117
  50         0.04830875
  51         0.00000000
  52         0.25600180
  53         0.03016879
  54         0.00000000
  55         0.00000000
  56         0.00000000
  57         0.00000000
  58        -0.00000000
  59         0.00000000
  60         0.00000000
  61         0.07530121
  62         0.08407769
  63         0.07530121
  64         0.08407769
  65         0.00630139
  66        -0.02060800
  67        -0.02307898
  68         0.18401878
  69         0.04369554
  70         0.00000000
  71         0.11491963
  72         0.02728784
  73         0.00000000
  74         0.00000000
  75        -0.00000000
  76         0.00000000
  77        -0.00000000
  78         0.00000000
  79         0.00000000
  80         0.00630139
  81        -0.02060800
  82        -0.02307898
  83        -0.18401878
  84         0.04369554
  85         0.00000000
  86        -0.11491963
  87         0.02728784
  88         0.00000000
  89         0.00000000
  90        -0.00000000
  91         0.00000000
  92         0.00000000
  93         0.00000000
  94         0.00000000
  95         0.08960665
  96         0.10005046
  97         0.08960665
  98         0.10005046
Sym=    11a1 
Ene=    -0.1415
Spin= Alpha
Occup=    0.00000
   1        -0.08021147
   2         0.35629300
   3         0.39839897
   4         0.16777202
   5         0.21828838
   6         0.00000000
   7         0.10477354
   8         0.13632098
   9         0.00000000
  10        -0.00000000
  11        -0.00000000
  12        -0.00000000
  13         0.00000000
  14         0.00000000
  15         0.00000000
  16        -0.08021147
  17         0.35629300
  18         0.39839897
  19        -0.16777202
  20         0.21828838
  21         0.00000000
  22        -0.10477354