[Molden Format]
[N_Atoms]
                   10
[Atoms] (AU)
C1          1      6           1.79524001      2.28645904      0.00000000
C1          2      6          -1.79524001      2.28645904      0.00000000
C2          3      6           2.63580888      0.00440637      0.00000000
C2          4      6          -2.63580888      0.00440637      0.00000000
H3          5      1          -2.48729252      4.17771050      0.00000000
H3          6      1           2.48729252      4.17771050      0.00000000
C4          7      6           1.32908898     -2.32423973      0.00000000
C4          8      6          -1.32908898     -2.32423973      0.00000000
H5          9      1           2.30590816     -4.10139748      0.00000000
H5         10      1          -2.30590816     -4.10139748      0.00000000
[Charge] (Mulliken)
 -0.58646662482674650     
 -0.58646662482674650     
   6.5149330397161975E-002
   6.5149330397161975E-002
  0.53040094577314112     
  0.53040094577314112     
 -0.47181090444812668     
 -0.47181090444812668     
  0.46272725310451834     
  0.46272725310451834     
[GTO] (AU)
   1
   s   6
  3.047524880E+03  1.834737132E-03
  4.573695180E+02  1.403732281E-02
  1.039486850E+02  6.884262227E-02
  2.921015530E+01  2.321844432E-01
  9.286662960E+00  4.679413484E-01
  3.163926960E+00  3.623119853E-01
   s   3
  7.868272350E+00 -1.193324198E-01
  1.881288540E+00 -1.608541517E-01
  5.442492580E-01  1.143456438E+00
   s   1
  1.687144782E-01  1.000000000E+00
   p   3
  7.868272350E+00  6.899906659E-02
  1.881288540E+00  3.164239610E-01
  5.442492580E-01  7.443082909E-01
   p   1
  1.687144782E-01  1.000000000E+00
   d   1
  8.000000000E-01  1.000000000E+00
 
   2
   s   6
  3.047524880E+03  1.834737132E-03
  4.573695180E+02  1.403732281E-02
  1.039486850E+02  6.884262227E-02
  2.921015530E+01  2.321844432E-01
  9.286662960E+00  4.679413484E-01
  3.163926960E+00  3.623119853E-01
   s   3
  7.868272350E+00 -1.193324198E-01
  1.881288540E+00 -1.608541517E-01
  5.442492580E-01  1.143456438E+00
   s   1
  1.687144782E-01  1.000000000E+00
   p   3
  7.868272350E+00  6.899906659E-02
  1.881288540E+00  3.164239610E-01
  5.442492580E-01  7.443082909E-01
   p   1
  1.687144782E-01  1.000000000E+00
   d   1
  8.000000000E-01  1.000000000E+00
 
   3
   s   6
  3.047524880E+03  1.834737132E-03
  4.573695180E+02  1.403732281E-02
  1.039486850E+02  6.884262227E-02
  2.921015530E+01  2.321844432E-01
  9.286662960E+00  4.679413484E-01
  3.163926960E+00  3.623119853E-01
   s   3
  7.868272350E+00 -1.193324198E-01
  1.881288540E+00 -1.608541517E-01
  5.442492580E-01  1.143456438E+00
   s   1
  1.687144782E-01  1.000000000E+00
   p   3
  7.868272350E+00  6.899906659E-02
  1.881288540E+00  3.164239610E-01
  5.442492580E-01  7.443082909E-01
   p   1
  1.687144782E-01  1.000000000E+00
   d   1
  8.000000000E-01  1.000000000E+00
 
   4
   s   6
  3.047524880E+03  1.834737132E-03
  4.573695180E+02  1.403732281E-02
  1.039486850E+02  6.884262227E-02
  2.921015530E+01  2.321844432E-01
  9.286662960E+00  4.679413484E-01
  3.163926960E+00  3.623119853E-01
   s   3
  7.868272350E+00 -1.193324198E-01
  1.881288540E+00 -1.608541517E-01
  5.442492580E-01  1.143456438E+00
   s   1
  1.687144782E-01  1.000000000E+00
   p   3
  7.868272350E+00  6.899906659E-02
  1.881288540E+00  3.164239610E-01
  5.442492580E-01  7.443082909E-01
   p   1
  1.687144782E-01  1.000000000E+00
   d   1
  8.000000000E-01  1.000000000E+00
 
   5
   s   3
  1.873113696E+01  3.349460434E-02
  2.825394365E+00  2.347269535E-01
  6.401216923E-01  8.137573261E-01
   s   1
  1.612777588E-01  1.000000000E+00
 
   6
   s   3
  1.873113696E+01  3.349460434E-02
  2.825394365E+00  2.347269535E-01
  6.401216923E-01  8.137573261E-01
   s   1
  1.612777588E-01  1.000000000E+00
 
   7
   s   6
  3.047524880E+03  1.834737132E-03
  4.573695180E+02  1.403732281E-02
  1.039486850E+02  6.884262227E-02
  2.921015530E+01  2.321844432E-01
  9.286662960E+00  4.679413484E-01
  3.163926960E+00  3.623119853E-01
   s   3
  7.868272350E+00 -1.193324198E-01
  1.881288540E+00 -1.608541517E-01
  5.442492580E-01  1.143456438E+00
   s   1
  1.687144782E-01  1.000000000E+00
   p   3
  7.868272350E+00  6.899906659E-02
  1.881288540E+00  3.164239610E-01
  5.442492580E-01  7.443082909E-01
   p   1
  1.687144782E-01  1.000000000E+00
   d   1
  8.000000000E-01  1.000000000E+00
 
   8
   s   6
  3.047524880E+03  1.834737132E-03
  4.573695180E+02  1.403732281E-02
  1.039486850E+02  6.884262227E-02
  2.921015530E+01  2.321844432E-01
  9.286662960E+00  4.679413484E-01
  3.163926960E+00  3.623119853E-01
   s   3
  7.868272350E+00 -1.193324198E-01
  1.881288540E+00 -1.608541517E-01
  5.442492580E-01  1.143456438E+00
   s   1
  1.687144782E-01  1.000000000E+00
   p   3
  7.868272350E+00  6.899906659E-02
  1.881288540E+00  3.164239610E-01
  5.442492580E-01  7.443082909E-01
   p   1
  1.687144782E-01  1.000000000E+00
   d   1
  8.000000000E-01  1.000000000E+00
 
   9
   s   3
  1.873113696E+01  3.349460434E-02
  2.825394365E+00  2.347269535E-01
  6.401216923E-01  8.137573261E-01
   s   1
  1.612777588E-01  1.000000000E+00
 
  10
   s   3
  1.873113696E+01  3.349460434E-02
  2.825394365E+00  2.347269535E-01
  6.401216923E-01  8.137573261E-01
   s   1
  1.612777588E-01  1.000000000E+00
 
[MO]
Sym=     1a1 
Ene=   -11.2720
Spin= Alpha
Occup=    2.00000
   1         0.01049127
   2         0.00019058
   3        -0.00007281
   4         0.00004570
   5         0.00001587
   6         0.00000000
   7         0.00003133
   8        -0.00011260
   9         0.00000000
  10        -0.00001966
  11         0.00007300
  12        -0.00007986
  13        -0.00003850
  14         0.00000000
  15         0.00000000
  16         0.01049127
  17         0.00019058
  18        -0.00007281
  19        -0.00004570
  20         0.00001587
  21         0.00000000
  22        -0.00003133
  23        -0.00011260
  24         0.00000000
  25        -0.00001966
  26         0.00007300
  27        -0.00007986
  28         0.00003850
  29         0.00000000
  30         0.00000000
  31         0.01560478
  32         0.00030243
  33         0.00231687
  34         0.00011581
  35         0.00010032
  36         0.00000000
  37        -0.00057696
  38        -0.00088819
  39         0.00000000
  40        -0.00020235
  41        -0.00040047
  42        -0.00014185
  43        -0.00008592
  44         0.00000000
  45         0.00000000
  46         0.01560478
  47         0.00030243
  48         0.00231687
  49        -0.00011581
  50         0.00010032
  51         0.00000000
  52         0.00057696
  53        -0.00088819
  54         0.00000000
  55        -0.00020235
  56        -0.00040047
  57        -0.00014185
  58         0.00008592
  59         0.00000000
  60         0.00000000
  61        -0.00001164
  62         0.00013297
  63        -0.00001164
  64         0.00013297
  65         0.70364722
  66         0.01913382
  67        -0.00608671
  68         0.00016150
  69         0.00019044
  70         0.00000000
  71        -0.00068465
  72        -0.00055416
  73         0.00000000
  74        -0.00144983
  75        -0.00128427
  76        -0.00166386
  77         0.00002686
  78         0.00000000
  79         0.00000000
  80         0.70364722
  81         0.01913382
  82        -0.00608671
  83        -0.00016150
  84         0.00019044
  85         0.00000000
  86         0.00068465
  87        -0.00055416
  88         0.00000000
  89        -0.00144983
  90        -0.00128427
  91        -0.00166386
  92        -0.00002686
  93         0.00000000
  94         0.00000000
  95        -0.00016170
  96         0.00127777
  97        -0.00016170
  98         0.00127777
Sym=     2a1 
Ene=   -11.2710
Spin= Alpha
Occup=    2.00000
   1         0.70317040
   2         0.01876487
   3        -0.00688999
   4        -0.00000770
   5         0.00016916
   6         0.00000000
   7        -0.00061315
   8         0.00050443
   9         0.00000000
  10        -0.00180713
  11        -0.00076990
  12        -0.00162466
  13        -0.00001725
  14         0.00000000
  15         0.00000000
  16         0.70317040
  17         0.01876487
  18        -0.00688999
  19         0.00000770
  20         0.00016916
  21         0.00000000
  22         0.00061315
  23         0.00050443
  24         0.00000000
  25        -0.00180713
  26        -0.00076990
  27        -0.00162466
  28         0.00001725
  29         0.00000000
  30         0.00000000
  31         0.03268546
  32         0.00043619
  33         0.00262007
  34         0.00013222
  35        -0.00020406
  36         0.00000000
  37        -0.00033020
  38         0.00157661
  39         0.00000000
  40        -0.00023377
  41        -0.00007783
  42        -0.00019848
  43         0.00000710
  44         0.00000000
  45         0.00000000
  46         0.03268546
  47         0.00043619
  48         0.00262007
  49        -0.00013222
  50        -0.00020406
  51         0.00000000
  52         0.00033020
  53         0.00157661
  54         0.00000000
  55        -0.00023377
  56        -0.00007783
  57        -0.00019848
  58        -0.00000710
  59         0.00000000
  60         0.00000000
  61        -0.00040132
  62         0.00148377
  63        -0.00040132
  64         0.00148377
  65        -0.01124523
  66        -0.00039990
  67         0.00043806
  68        -0.00001020
  69        -0.00007981
  70         0.00000000
  71         0.00013990
  72         0.00020628
  73         0.00000000
  74        -0.00000489
  75         0.00004848
  76        -0.00002209
  77        -0.00000618
  78         0.00000000
  79         0.00000000
  80        -0.01124523
  81        -0.00039990
  82         0.00043806
  83         0.00001020
  84        -0.00007981
  85         0.00000000
  86        -0.00013990
  87         0.00020628
  88         0.00000000
  89        -0.00000489
  90         0.00004848
  91        -0.00002209
  92         0.00000618
  93         0.00000000
  94         0.00000000
  95        -0.00000964
  96         0.00009910
  97        -0.00000964
  98         0.00009910
Sym=     3a1 
Ene=   -11.2480
Spin= Alpha
Occup=    2.00000
   1        -0.03354732
   2        -0.00128938
   3         0.00435106
   4        -0.00006419
   5         0.00023906
   6         0.00000000
   7        -0.00002134
   8        -0.00253431
   9         0.00000000
  10        -0.00020356
  11        -0.00007016
  12        -0.00003800
  13         0.00011029
  14         0.00000000
  15         0.00000000
  16        -0.03354732
  17        -0.00128938
  18         0.00435106
  19         0.00006419
  20         0.00023906
  21         0.00000000
  22         0.00002134
  23        -0.00253431
  24         0.00000000
  25        -0.00020356
  26        -0.00007016
  27        -0.00003800
  28        -0.00011029
  29         0.00000000
  30         0.00000000
  31         0.70317720
  32         0.01906663
  33        -0.01055476
  34        -0.00076014
  35        -0.00010619
  36         0.00000000
  37         0.00262420
  38        -0.00052516
  39         0.00000000
  40        -0.00154470
  41        -0.00056051
  42        -0.00157625
  43         0.00007766
  44         0.00000000
  45         0.00000000
  46         0.70317720
  47         0.01906663
  48        -0.01055476
  49         0.00076014
  50        -0.00010619
  51         0.00000000
  52        -0.00262420
  53        -0.00052516
  54         0.00000000
  55        -0.00154470
  56        -0.00056051
  57        -0.00157625
  58        -0.00007766
  59         0.00000000
  60         0.00000000
  61         0.00001360
  62         0.00059298
  63         0.00001360
  64         0.00059298
  65        -0.01545870
  66        -0.00062339
  67         0.00303552
  68        -0.00005491
  69        -0.00026954
  70         0.00000000
  71        -0.00007006
  72         0.00174372
  73         0.00000000
  74        -0.00023876
  75        -0.00035216
  76        -0.00013457
  77        -0.00025224
  78         0.00000000
  79         0.00000000
  80        -0.01545870
  81        -0.00062339
  82         0.00303552
  83         0.00005491
  84        -0.00026954
  85         0.00000000
  86         0.00007006
  87         0.00174372
  88         0.00000000
  89        -0.00023876
  90        -0.00035216
  91        -0.00013457
  92         0.00025224
  93         0.00000000
  94         0.00000000
  95        -0.00000044
  96         0.00043929
  97        -0.00000044
  98         0.00043929
Sym=     4a1 
Ene=    -1.1326
Spin= Alpha
Occup=    2.00000
   1        -0.07102279
   2         0.13452666
   3         0.09638777
   4        -0.00117886
   5        -0.06093532
   6         0.00000000
   7        -0.00442797
   8        -0.00609826
   9         0.00000000
  10        -0.00013531
  11         0.00911148
  12        -0.00622157
  13        -0.00050589
  14         0.00000000
  15         0.00000000
  16        -0.07102279
  17         0.13452666
  18         0.09638777
  19         0.00117886
  20        -0.06093532
  21         0.00000000
  22         0.00442797
  23        -0.00609826
  24         0.00000000
  25        -0.00013531
  26         0.00911148
  27        -0.00622157
  28         0.00050589
  29         0.00000000
  30         0.00000000
  31        -0.09435316
  32         0.18142430
  33         0.10314571
  34        -0.06500779
  35        -0.00394619
  36         0.00000000
  37        -0.00740591
  38        -0.00499090
  39         0.00000000
  40        -0.00111854
  41         0.01039250
  42        -0.00840104
  43         0.00301424
  44         0.00000000
  45         0.00000000
  46        -0.09435316
  47         0.18142430
  48         0.10314571
  49         0.06500779
  50        -0.00394619
  51         0.00000000
  52         0.00740591
  53        -0.00499090
  54         0.00000000
  55        -0.00111854
  56         0.01039250
  57        -0.00840104
  58        -0.00301424
  59         0.00000000
  60         0.00000000
  61         0.02710956
  62         0.00199159
  63         0.02710956
  64         0.00199159
  65        -0.10993478
  66         0.21293778
  67         0.14035244
  68        -0.04206061
  69         0.04848952
  70         0.00000000
  71        -0.00587098
  72         0.00472919
  73         0.00000000
  74         0.00932746
  75         0.00731307
  76        -0.00975861
  77         0.00103150
  78         0.00000000
  79         0.00000000
  80        -0.10993478
  81         0.21293778
  82         0.14035244
  83         0.04206061
  84         0.04848952
  85         0.00000000
  86         0.00587098
  87         0.00472919
  88         0.00000000
  89         0.00932746
  90         0.00731307
  91        -0.00975861
  92        -0.00103150
  93         0.00000000
  94         0.00000000
  95         0.04708676
  96         0.00485975
  97         0.04708676
  98         0.00485975
Sym=     5a1 
Ene=    -0.9977
Spin= Alpha
Occup=    2.00000
   1         0.10953643
   2        -0.20836335
   3        -0.18442663
   4        -0.00967423
   5         0.03410671
   6         0.00000000
   7         0.00373044
   8         0.00124526
   9         0.00000000
  10        -0.00209840
  11        -0.01287373
  12         0.00933862
  13         0.00091275
  14         0.00000000
  15         0.00000000
  16         0.10953643
  17        -0.20836335
  18        -0.18442663
  19         0.00967423
  20         0.03410671
  21         0.00000000
  22        -0.00373044
  23         0.00124526
  24         0.00000000
  25        -0.00209840
  26        -0.01287373
  27         0.00933862
  28        -0.00091275
  29         0.00000000
  30         0.00000000
  31         0.04053545
  32        -0.07756509
  33        -0.04946179
  34         0.00693338
  35        -0.14018387
  36         0.00000000
  37        -0.00298461
  38        -0.00597881
  39         0.00000000
  40         0.00346224
  41        -0.00149332
  42         0.00223351
  43         0.01012910
  44         0.00000000
  45         0.00000000
  46         0.04053545
  47        -0.07756509
  48        -0.04946179
  49        -0.00693338
  50        -0.14018387
  51         0.00000000
  52         0.00298461
  53        -0.00597881
  54         0.00000000
  55         0.00346224
  56        -0.00149332
  57         0.00223351
  58        -0.01012910
  59         0.00000000
  60         0.00000000
  61        -0.07050880
  62        -0.01585906
  63        -0.07050880
  64        -0.01585906
  65        -0.10060871
  66         0.19711071
  67         0.16758335
  68        -0.06566640
  69        -0.03359784
  70         0.00000000
  71        -0.00296017
  72        -0.01295904
  73         0.00000000
  74         0.01125432
  75         0.00088141
  76        -0.00784949
  77        -0.00352992
  78         0.00000000
  79         0.00000000
  80        -0.10060871
  81         0.19711071
  82         0.16758335
  83         0.06566640
  84        -0.03359784
  85         0.00000000
  86         0.00296017
  87        -0.01295904
  88         0.00000000
  89         0.01125432
  90         0.00088141
  91        -0.00784949
  92         0.00352992
  93         0.00000000
  94         0.00000000
  95         0.06956144
  96         0.01304094
  97         0.06956144
  98         0.01304094
Sym=     6a1 
Ene=    -0.7753
Spin= Alpha
Occup=    2.00000
   1        -0.05497732
   2         0.10940116
   3         0.10806560
   4        -0.00789341
   5         0.20382611
   6         0.00000000
   7        -0.00901933
   8         0.08326309
   9         0.00000000
  10         0.00332113
  11         0.01178435
  12        -0.00468949
  13         0.00783583
  14         0.00000000
  15         0.00000000
  16        -0.05497732
  17         0.10940116
  18         0.10806560
  19         0.00789341
  20         0.20382611
  21         0.00000000
  22         0.00901933
  23         0.08326309
  24         0.00000000
  25         0.00332113
  26         0.01178435
  27        -0.00468949
  28        -0.00783583
  29         0.00000000
  30         0.00000000
  31         0.07663277
  32        -0.15540391
  33        -0.09885212
  34         0.04167795
  35         0.03223538
  36         0.00000000
  37        -0.00635759
  38         0.01842684
  39         0.00000000
  40         0.00051009
  41        -0.00507492
  42         0.00529765
  43        -0.00020990
  44         0.00000000
  45         0.00000000
  46         0.07663277
  47        -0.15540391
  48        -0.09885212
  49        -0.04167795
  50         0.03223538
  51         0.00000000
  52         0.00635759
  53         0.01842684
  54         0.00000000
  55         0.00051009
  56        -0.00507492
  57         0.00529765
  58         0.00020990
  59         0.00000000
  60         0.00000000
  61         0.14854088
  62         0.06999997
  63         0.14854088
  64         0.06999997
  65        -0.03137681
  66         0.06283210
  67         0.06214739
  68        -0.08455643
  69        -0.17583902
  70         0.00000000
  71        -0.01927702
  72        -0.06354232
  73         0.00000000
  74         0.00611974
  75        -0.00258464
  76        -0.00186135
  77        -0.00859428
  78         0.00000000
  79         0.00000000
  80        -0.03137681
  81         0.06283210
  82         0.06214739
  83         0.08455643
  84        -0.17583902
  85         0.00000000
  86         0.01927702
  87        -0.06354232
  88         0.00000000
  89         0.00611974
  90        -0.00258464
  91        -0.00186135
  92         0.00859428
  93         0.00000000
  94         0.00000000
  95         0.08466800
  96         0.03867161
  97         0.08466800
  98         0.03867161
Sym=     7a1 
Ene=    -0.6452
Spin= Alpha
Occup=    2.00000
   1        -0.00675214
   2         0.01112174
   3         0.01685456
   4         0.07943950
   5        -0.18360505
   6         0.00000000
   7         0.03915202
   8        -0.07548111
   9         0.00000000
  10        -0.00113053
  11        -0.00791271
  12        -0.00031231
  13        -0.01092585
  14         0.00000000
  15         0.00000000
  16        -0.00675214
  17         0.01112174
  18         0.01685456
  19        -0.07943950
  20        -0.18360505
  21         0.00000000
  22        -0.03915202
  23        -0.07548111
  24         0.00000000
  25        -0.00113053
  26        -0.00791271
  27        -0.00031231
  28         0.01092585
  29         0.00000000
  30         0.00000000
  31        -0.02416483
  32         0.04706624
  33         0.03493736
  34         0.07123137
  35         0.19159895
  36         0.00000000
  37         0.03397515
  38         0.03462355
  39         0.00000000
  40        -0.00832757
  41         0.00568787
  42        -0.00034886
  43        -0.01382818
  44         0.00000000
  45         0.00000000
  46        -0.02416483
  47         0.04706624
  48         0.03493736
  49        -0.07123137
  50         0.19159895
  51         0.00000000
  52        -0.03397515
  53         0.03462355
  54         0.00000000
  55        -0.00832757
  56         0.00568787
  57        -0.00034886
  58         0.01382818
  59         0.00000000
  60         0.00000000
  61        -0.08341966
  62        -0.05785322
  63        -0.08341966
  64        -0.05785322
  65         0.01110151
  66        -0.02639674
  67        -0.01596797
  68         0.10056919
  69        -0.25612568
  70         0.00000000
  71         0.03659345
  72        -0.10448809
  73         0.00000000
  74        -0.00385021
  75         0.01094334
  76         0.00000105
  77        -0.00716310
  78         0.00000000
  79         0.00000000
  80         0.01110151
  81        -0.02639674
  82        -0.01596797
  83        -0.10056919
  84        -0.25612568
  85         0.00000000
  86        -0.03659345
  87        -0.10448809
  88         0.00000000
  89        -0.00385021
  90         0.01094334
  91         0.00000105
  92         0.00716310
  93         0.00000000
  94         0.00000000
  95         0.14876027
  96         0.09926507
  97         0.14876027
  98         0.09926507
Sym=     8a1 
Ene=    -0.6384
Spin= Alpha
Occup=    2.00000
   1         0.01310574
   2        -0.02600116
   3        -0.02879940
   4         0.04514804
   5         0.14689130
   6         0.00000000
   7         0.02310463
   8         0.05944601
   9         0.00000000
  10        -0.00145398
  11         0.00471861
  12         0.00060484
  13         0.00377946
  14         0.00000000
  15         0.00000000
  16         0.01310574
  17        -0.02600116
  18        -0.02879940
  19        -0.04514804
  20         0.14689130
  21         0.00000000
  22        -0.02310463
  23         0.05944601
  24         0.00000000
  25        -0.00145398
  26         0.00471861
  27         0.00060484
  28        -0.00377946
  29         0.00000000
  30         0.00000000
  31        -0.04015854
  32         0.08431643
  33         0.11333376
  34         0.07222900
  35        -0.19022340
  36         0.00000000
  37         0.03386281
  38        -0.04055127
  39         0.00000000
  40        -0.00957743
  41         0.01051606
  42        -0.00073942
  43         0.00876319
  44         0.00000000
  45         0.00000000
  46        -0.04015854
  47         0.08431643
  48         0.11333376
  49        -0.07222900
  50        -0.19022340
  51         0.00000000
  52        -0.03386281
  53        -0.04055127
  54         0.00000000
  55        -0.00957743
  56         0.01051606
  57        -0.00073942
  58        -0.00876319
  59         0.00000000
  60         0.00000000
  61         0.07658278
  62         0.05171212
  63         0.07658278
  64         0.05171212
  65         0.00744131
  66        -0.01838762
  67         0.01719397
  68         0.33279957
  69         0.03069277
  70         0.00000000
  71         0.13213602
  72         0.00524369
  73         0.00000000
  74        -0.00890955
  75         0.01274228
  76        -0.00090302
  77         0.00493703
  78         0.00000000
  79         0.00000000
  80         0.00744131
  81        -0.01838762
  82         0.01719397
  83        -0.33279957
  84         0.03069277
  85         0.00000000
  86        -0.13213602
  87         0.00524369
  88         0.00000000
  89        -0.00890955
  90         0.01274228
  91        -0.00090302
  92        -0.00493703
  93         0.00000000
  94         0.00000000
  95         0.06900860
  96         0.04324274
  97         0.06900860
  98         0.04324274
Sym=     9a1 
Ene=    -0.4923
Spin= Alpha
Occup=    2.00000
   1         0.02213885
   2        -0.03927704
   3        -0.07699673
   4         0.29622679
   5         0.05572944
   6         0.00000000
   7         0.17928293
   8         0.03204867
   9         0.00000000
  10        -0.00997646
  11         0.00631261
  12        -0.00048884
  13        -0.00593760
  14         0.00000000
  15         0.00000000
  16         0.02213885
  17        -0.03927704
  18        -0.07699673
  19        -0.29622679
  20         0.05572944
  21         0.00000000
  22        -0.17928293
  23         0.03204867
  24         0.00000000
  25        -0.00997646
  26         0.00631261
  27        -0.00048884
  28         0.00593760
  29         0.00000000
  30         0.00000000
  31        -0.03667709
  32         0.07596631
  33         0.10086586
  34         0.14696599
  35         0.06620436
  36         0.00000000
  37         0.09296354
  38         0.01809939
  39         0.00000000
  40        -0.00861749
  41         0.00573262
  42         0.00120772
  43         0.01331347
  44         0.00000000
  45         0.00000000
  46        -0.03667709
  47         0.07596631
  48         0.10086586
  49        -0.14696599
  50         0.06620436
  51         0.00000000
  52        -0.09296354
  53         0.01809939
  54         0.00000000
  55        -0.00861749
  56         0.00573262
  57         0.00120772
  58        -0.01331347
  59         0.00000000
  60         0.00000000
  61         0.07623396
  62         0.05754005
  63         0.07623396
  64         0.05754005
  65        -0.01101817
  66         0.02412660
  67         0.03589600
  68        -0.16352444
  69         0.04428235
  70         0.00000000
  71        -0.06943839
  72         0.02921307
  73         0.00000000
  74         0.00927319
  75        -0.01395296
  76         0.00072763
  77         0.00478747
  78         0.00000000
  79         0.00000000
  80        -0.01101817
  81         0.02412660
  82         0.03589600
  83         0.16352444
  84         0.04428235
  85         0.00000000
  86         0.06943839
  87         0.02921307
  88         0.00000000
  89         0.00927319
  90        -0.01395296
  91         0.00072763
  92        -0.00478747
  93         0.00000000
  94         0.00000000
  95        -0.07499684
  96        -0.06902931
  97        -0.07499684
  98        -0.06902931
Sym=    10a1 
Ene=     0.0273
Spin= Alpha
Occup=    0.00000
   1         0.00759387
   2         0.01874931
   3        -0.18945628
   4         0.20265054
   5        -0.05763194
   6         0.00000000
   7         0.20994652
   8        -0.07266302
   9         0.00000000
  10        -0.01935296
  11         0.01816558
  12        -0.00026990
  13         0.01763134
  14         0.00000000
  15         0.00000000
  16         0.00759387
  17         0.01874931
  18        -0.18945628
  19        -0.20265054
  20        -0.05763194
  21         0.00000000
  22        -0.20994652
  23        -0.07266302
  24         0.00000000
  25        -0.01935296
  26         0.01816558
  27        -0.00026990
  28        -0.01763134
  29         0.00000000
  30         0.00000000
  31         0.02966014
  32        -0.02883666
  33        -0.24545310
  34        -0.29330911
  35         0.06099974
  36         0.00000000
  37        -0.36983577
  38         0.02695743
  39         0.00000000
  40         0.00313701
  41         0.01065115
  42        -0.00275530
  43         0.00622566
  44         0.00000000
  45         0.00000000
  46         0.02966014
  47        -0.02883666
  48        -0.24545310
  49         0.29330911
  50         0.06099974
  51         0.00000000
  52         0.36983577
  53         0.02695743
  54         0.00000000
  55         0.00313701
  56         0.01065115
  57        -0.00275530
  58        -0.00622566
  59         0.00000000
  60         0.00000000
  61         0.08966412
  62         0.23075362
  63         0.08966412
  64         0.23075362
  65         0.00119674
  66         0.01332342
  67        -0.10012894
  68         0.13315927
  69         0.06940887
  70         0.00000000
  71         0.06353635
  72         0.03245741
  73         0.00000000
  74        -0.01396310
  75         0.01772194
  76         0.00126106
  77        -0.01586334
  78         0.00000000
  79         0.00000000
  80         0.00119674
  81         0.01332342
  82        -0.10012894
  83        -0.13315927
  84         0.06940887
  85         0.00000000
  86        -0.06353635
  87         0.03245741
  88         0.00000000
  89        -0.01396310
  90         0.01772194
  91         0.00126106
  92         0.01586334
  93         0.00000000
  94         0.00000000
  95         0.06682635
  96         0.15919273
  97         0.06682635
  98         0.15919273
Sym=    11a1 
Ene=     0.2587
Spin= Alpha
Occup=    0.00000
   1         0.05873469
   2        -0.09288073
   3        -0.69929922
   4        -0.09500228
   5        -0.08201697
   6         0.00000000
   7        -0.29986102
   8        -0.51234943
   9         0.00000000
  10        -0.00260330
  11         0.00762211
  12         0.00100500
  13        -0.00272044
  14         0.00000000
  15         0.00000000
  16         0.05873469
  17        -0.09288073
  18        -0.69929922
  19         0.09500228
  20        -0.08201697
  21         0.00000000
  22         0.29986102