[Molden Format]
[N_Atoms]
                   10
[Atoms] (AU)
C1          1      6           1.81735554      2.28543702      0.00000000
C1          2      6          -1.81735554      2.28543702      0.00000000
C2          3      6           2.63287976      0.00435978      0.00000000
C2          4      6          -2.63287976      0.00435978      0.00000000
H3          5      1          -2.48057501      4.18574807      0.00000000
H3          6      1           2.48057501      4.18574807      0.00000000
C4          7      6           1.32738734     -2.32856448      0.00000000
C4          8      6          -1.32738734     -2.32856448      0.00000000
H5          9      1           2.30712147     -4.10404169      0.00000000
H5         10      1          -2.30712147     -4.10404169      0.00000000
[Charge] (Mulliken)
 -0.53714879271443472     
 -0.53714879271443472     
   6.4230977654116117E-002
   6.4230977654116117E-002
  0.47918324191506390     
  0.47918324191506390     
 -0.43636911421244307     
 -0.43636911421244307     
  0.43010368735738913     
  0.43010368735738913     
[GTO] (AU)
   1
   s   6
  3.047524880E+03  1.834737132E-03
  4.573695180E+02  1.403732281E-02
  1.039486850E+02  6.884262227E-02
  2.921015530E+01  2.321844432E-01
  9.286662960E+00  4.679413484E-01
  3.163926960E+00  3.623119853E-01
   s   3
  7.868272350E+00 -1.193324198E-01
  1.881288540E+00 -1.608541517E-01
  5.442492580E-01  1.143456438E+00
   s   1
  1.687144782E-01  1.000000000E+00
   p   3
  7.868272350E+00  6.899906659E-02
  1.881288540E+00  3.164239610E-01
  5.442492580E-01  7.443082909E-01
   p   1
  1.687144782E-01  1.000000000E+00
   d   1
  8.000000000E-01  1.000000000E+00
 
   2
   s   6
  3.047524880E+03  1.834737132E-03
  4.573695180E+02  1.403732281E-02
  1.039486850E+02  6.884262227E-02
  2.921015530E+01  2.321844432E-01
  9.286662960E+00  4.679413484E-01
  3.163926960E+00  3.623119853E-01
   s   3
  7.868272350E+00 -1.193324198E-01
  1.881288540E+00 -1.608541517E-01
  5.442492580E-01  1.143456438E+00
   s   1
  1.687144782E-01  1.000000000E+00
   p   3
  7.868272350E+00  6.899906659E-02
  1.881288540E+00  3.164239610E-01
  5.442492580E-01  7.443082909E-01
   p   1
  1.687144782E-01  1.000000000E+00
   d   1
  8.000000000E-01  1.000000000E+00
 
   3
   s   6
  3.047524880E+03  1.834737132E-03
  4.573695180E+02  1.403732281E-02
  1.039486850E+02  6.884262227E-02
  2.921015530E+01  2.321844432E-01
  9.286662960E+00  4.679413484E-01
  3.163926960E+00  3.623119853E-01
   s   3
  7.868272350E+00 -1.193324198E-01
  1.881288540E+00 -1.608541517E-01
  5.442492580E-01  1.143456438E+00
   s   1
  1.687144782E-01  1.000000000E+00
   p   3
  7.868272350E+00  6.899906659E-02
  1.881288540E+00  3.164239610E-01
  5.442492580E-01  7.443082909E-01
   p   1
  1.687144782E-01  1.000000000E+00
   d   1
  8.000000000E-01  1.000000000E+00
 
   4
   s   6
  3.047524880E+03  1.834737132E-03
  4.573695180E+02  1.403732281E-02
  1.039486850E+02  6.884262227E-02
  2.921015530E+01  2.321844432E-01
  9.286662960E+00  4.679413484E-01
  3.163926960E+00  3.623119853E-01
   s   3
  7.868272350E+00 -1.193324198E-01
  1.881288540E+00 -1.608541517E-01
  5.442492580E-01  1.143456438E+00
   s   1
  1.687144782E-01  1.000000000E+00
   p   3
  7.868272350E+00  6.899906659E-02
  1.881288540E+00  3.164239610E-01
  5.442492580E-01  7.443082909E-01
   p   1
  1.687144782E-01  1.000000000E+00
   d   1
  8.000000000E-01  1.000000000E+00
 
   5
   s   3
  1.873113696E+01  3.349460434E-02
  2.825394365E+00  2.347269535E-01
  6.401216923E-01  8.137573261E-01
   s   1
  1.612777588E-01  1.000000000E+00
 
   6
   s   3
  1.873113696E+01  3.349460434E-02
  2.825394365E+00  2.347269535E-01
  6.401216923E-01  8.137573261E-01
   s   1
  1.612777588E-01  1.000000000E+00
 
   7
   s   6
  3.047524880E+03  1.834737132E-03
  4.573695180E+02  1.403732281E-02
  1.039486850E+02  6.884262227E-02
  2.921015530E+01  2.321844432E-01
  9.286662960E+00  4.679413484E-01
  3.163926960E+00  3.623119853E-01
   s   3
  7.868272350E+00 -1.193324198E-01
  1.881288540E+00 -1.608541517E-01
  5.442492580E-01  1.143456438E+00
   s   1
  1.687144782E-01  1.000000000E+00
   p   3
  7.868272350E+00  6.899906659E-02
  1.881288540E+00  3.164239610E-01
  5.442492580E-01  7.443082909E-01
   p   1
  1.687144782E-01  1.000000000E+00
   d   1
  8.000000000E-01  1.000000000E+00
 
   8
   s   6
  3.047524880E+03  1.834737132E-03
  4.573695180E+02  1.403732281E-02
  1.039486850E+02  6.884262227E-02
  2.921015530E+01  2.321844432E-01
  9.286662960E+00  4.679413484E-01
  3.163926960E+00  3.623119853E-01
   s   3
  7.868272350E+00 -1.193324198E-01
  1.881288540E+00 -1.608541517E-01
  5.442492580E-01  1.143456438E+00
   s   1
  1.687144782E-01  1.000000000E+00
   p   3
  7.868272350E+00  6.899906659E-02
  1.881288540E+00  3.164239610E-01
  5.442492580E-01  7.443082909E-01
   p   1
  1.687144782E-01  1.000000000E+00
   d   1
  8.000000000E-01  1.000000000E+00
 
   9
   s   3
  1.873113696E+01  3.349460434E-02
  2.825394365E+00  2.347269535E-01
  6.401216923E-01  8.137573261E-01
   s   1
  1.612777588E-01  1.000000000E+00
 
  10
   s   3
  1.873113696E+01  3.349460434E-02
  2.825394365E+00  2.347269535E-01
  6.401216923E-01  8.137573261E-01
   s   1
  1.612777588E-01  1.000000000E+00
 
[MO]
Sym=     1a1 
Ene=   -11.2430
Spin= Alpha
Occup=    2.00000
   1         0.00289341
   2        -0.00001149
   3         0.00000928
   4         0.00008627
   5         0.00001293
   6         0.00000000
   7         0.00006868
   8        -0.00012067
   9         0.00000000
  10        -0.00000336
  11         0.00008280
  12        -0.00006389
  13        -0.00004037
  14         0.00000000
  15         0.00000000
  16         0.00289341
  17        -0.00001149
  18         0.00000928
  19        -0.00008627
  20         0.00001293
  21         0.00000000
  22        -0.00006868
  23        -0.00012067
  24         0.00000000
  25        -0.00000336
  26         0.00008280
  27        -0.00006389
  28         0.00004037
  29         0.00000000
  30         0.00000000
  31         0.01729196
  32         0.00032912
  33         0.00220218
  34         0.00008802
  35         0.00015424
  36         0.00000000
  37        -0.00056522
  38        -0.00089496
  39         0.00000000
  40        -0.00020116
  41        -0.00041621
  42        -0.00014874
  43        -0.00007761
  44         0.00000000
  45         0.00000000
  46         0.01729196
  47         0.00032912
  48         0.00220218
  49        -0.00008802
  50         0.00015424
  51         0.00000000
  52         0.00056522
  53        -0.00089496
  54         0.00000000
  55        -0.00020116
  56        -0.00041621
  57        -0.00014874
  58         0.00007761
  59         0.00000000
  60         0.00000000
  61         0.00000085
  62         0.00012297
  63         0.00000085
  64         0.00012297
  65         0.70354554
  66         0.01967772
  67        -0.00600279
  68        -0.00012264
  69         0.00019382
  70         0.00000000
  71        -0.00080057
  72        -0.00054552
  73         0.00000000
  74        -0.00154163
  75        -0.00144001
  76        -0.00176795
  77         0.00003044
  78         0.00000000
  79         0.00000000
  80         0.70354554
  81         0.01967772
  82        -0.00600279
  83         0.00012264
  84         0.00019382
  85         0.00000000
  86         0.00080057
  87        -0.00054552
  88         0.00000000
  89        -0.00154163
  90        -0.00144001
  91        -0.00176795
  92        -0.00003044
  93         0.00000000
  94         0.00000000
  95        -0.00019382
  96         0.00123399
  97        -0.00019382
  98         0.00123399
Sym=     2a1 
Ene=   -11.2400
Spin= Alpha
Occup=    2.00000
   1         0.70221722
   2         0.01898364
   3        -0.00700553
   4         0.00078512
   5         0.00006250
   6         0.00000000
   7        -0.00017095
   8         0.00048945
   9         0.00000000
  10        -0.00193681
  11        -0.00089349
  12        -0.00177604
  13        -0.00005825
  14         0.00000000
  15         0.00000000
  16         0.70221722
  17         0.01898364
  18        -0.00700553
  19        -0.00078512
  20         0.00006250
  21         0.00000000
  22         0.00017095
  23         0.00048945
  24         0.00000000
  25        -0.00193681
  26        -0.00089349
  27        -0.00177604
  28         0.00005825
  29         0.00000000
  30         0.00000000
  31         0.05030944
  32         0.00123035
  33         0.00265689
  34         0.00044279
  35        -0.00017984
  36         0.00000000
  37        -0.00006987
  38         0.00149086
  39         0.00000000
  40        -0.00032806
  41        -0.00012439
  42        -0.00025102
  43         0.00003693
  44         0.00000000
  45         0.00000000
  46         0.05030944
  47         0.00123035
  48         0.00265689
  49        -0.00044279
  50        -0.00017984
  51         0.00000000
  52         0.00006987
  53         0.00149086
  54         0.00000000
  55        -0.00032806
  56        -0.00012439
  57        -0.00025102
  58        -0.00003693
  59         0.00000000
  60         0.00000000
  61        -0.00031590
  62         0.00156373
  63        -0.00031590
  64         0.00156373
  65        -0.00414343
  66        -0.00027589
  67         0.00041810
  68         0.00012684
  69        -0.00004958
  70         0.00000000
  71         0.00012912
  72         0.00028189
  73         0.00000000
  74        -0.00002389
  75         0.00002633
  76        -0.00004089
  77         0.00000369
  78         0.00000000
  79         0.00000000
  80        -0.00414343
  81        -0.00027589
  82         0.00041810
  83        -0.00012684
  84        -0.00004958
  85         0.00000000
  86        -0.00012912
  87         0.00028189
  88         0.00000000
  89        -0.00002389
  90         0.00002633
  91        -0.00004089
  92        -0.00000369
  93         0.00000000
  94         0.00000000
  95        -0.00003084
  96         0.00010358
  97        -0.00003084
  98         0.00010358
Sym=     3a1 
Ene=   -11.2230
Spin= Alpha
Occup=    2.00000
   1        -0.05129979
   2        -0.00152395
   3         0.00494176
   4        -0.00088179
   5         0.00023381
   6         0.00000000
   7        -0.00046006
   8        -0.00258573
   9         0.00000000
  10        -0.00013304
  11        -0.00004670
  12         0.00000288
  13         0.00012916
  14         0.00000000
  15         0.00000000
  16        -0.05129979
  17        -0.00152395
  18         0.00494176
  19         0.00088179
  20         0.00023381
  21         0.00000000
  22         0.00046006
  23        -0.00258573
  24         0.00000000
  25        -0.00013304
  26        -0.00004670
  27         0.00000288
  28        -0.00012916
  29         0.00000000
  30         0.00000000
  31         0.70219730
  32         0.01916884
  33        -0.01114074
  34        -0.00128946
  35        -0.00000598
  36         0.00000000
  37         0.00227065
  38        -0.00064329
  39         0.00000000
  40        -0.00167141
  41        -0.00077014
  42        -0.00171604
  43         0.00003394
  44         0.00000000
  45         0.00000000
  46         0.70219730
  47         0.01916884
  48        -0.01114074
  49         0.00128946
  50        -0.00000598
  51         0.00000000
  52        -0.00227065
  53        -0.00064329
  54         0.00000000
  55        -0.00167141
  56        -0.00077014
  57        -0.00171604
  58        -0.00003394
  59         0.00000000
  60         0.00000000
  61        -0.00004702
  62         0.00045103
  63        -0.00004702
  64         0.00045103
  65        -0.01748851
  66        -0.00045470
  67         0.00305275
  68        -0.00046178
  69        -0.00027447
  70         0.00000000
  71        -0.00021674
  72         0.00170603
  73         0.00000000
  74        -0.00021751
  75        -0.00032212
  76        -0.00013482
  77        -0.00025707
  78         0.00000000
  79         0.00000000
  80        -0.01748851
  81        -0.00045470
  82         0.00305275
  83         0.00046178
  84        -0.00027447
  85         0.00000000
  86         0.00021674
  87         0.00170603
  88         0.00000000
  89        -0.00021751
  90        -0.00032212
  91        -0.00013482
  92         0.00025707
  93         0.00000000
  94         0.00000000
  95         0.00001380
  96         0.00044987
  97         0.00001380
  98         0.00044987
Sym=     4a1 
Ene=    -1.0821
Spin= Alpha
Occup=    2.00000
   1        -0.09319246
   2         0.17418762
   3         0.12941185
   4         0.02526622
   5        -0.07955645
   6         0.00000000
   7         0.00915775
   8        -0.00911010
   9         0.00000000
  10        -0.00099196
  11         0.01255173
  12        -0.00783209
  13        -0.00168589
  14         0.00000000
  15         0.00000000
  16        -0.09319246
  17         0.17418762
  18         0.12941185
  19        -0.02526622
  20        -0.07955645
  21         0.00000000
  22        -0.00915775
  23        -0.00911010
  24         0.00000000
  25        -0.00099196
  26         0.01255173
  27        -0.00783209
  28         0.00168589
  29         0.00000000
  30         0.00000000
  31        -0.11689222
  32         0.22407640
  33         0.14337239
  34        -0.05943407
  35         0.02399125
  36         0.00000000
  37        -0.00833845
  38        -0.00873798
  39         0.00000000
  40        -0.00430964
  41         0.01358634
  42        -0.00872139
  43         0.00016947
  44         0.00000000
  45         0.00000000
  46        -0.11689222
  47         0.22407640
  48         0.14337239
  49         0.05943407
  50         0.02399125
  51         0.00000000
  52         0.00833845
  53        -0.00873798
  54         0.00000000
  55        -0.00430964
  56         0.01358634
  57        -0.00872139
  58        -0.00016947
  59         0.00000000
  60         0.00000000
  61         0.04098965
  62         0.00683571
  63         0.04098965
  64         0.00683571
  65        -0.06193812
  66         0.11686642
  67         0.06621677
  68         0.06169253
  69         0.06247622
  70         0.00000000
  71         0.02562363
  72         0.00849997
  73         0.00000000
  74         0.00200252
  75         0.01049336
  76        -0.00606974
  77         0.00296396
  78         0.00000000
  79         0.00000000
  80        -0.06193812
  81         0.11686642
  82         0.06621677
  83        -0.06169253
  84         0.06247622
  85         0.00000000
  86        -0.02562363
  87         0.00849997
  88         0.00000000
  89         0.00200252
  90         0.01049336
  91        -0.00606974
  92        -0.00296396
  93         0.00000000
  94         0.00000000
  95         0.03567958
  96         0.01324108
  97         0.03567958
  98         0.01324108
Sym=     5a1 
Ene=    -0.9106
Spin= Alpha
Occup=    2.00000
   1         0.08703229
   2        -0.16528243
   3        -0.14932267
   4        -0.06201161
   5         0.00279777
   6         0.00000000
   7        -0.03163620
   8        -0.00686647
   9         0.00000000
  10        -0.00054007
  11        -0.01228563
  12         0.00743833
  13         0.00123454
  14         0.00000000
  15         0.00000000
  16         0.08703229
  17        -0.16528243
  18        -0.14932267
  19         0.06201161
  20         0.00279777
  21         0.00000000
  22         0.03163620
  23        -0.00686647
  24         0.00000000
  25        -0.00054007
  26        -0.01228563
  27         0.00743833
  28        -0.00123454
  29         0.00000000
  30         0.00000000
  31        -0.00536580
  32         0.01270607
  33         0.01569518
  34        -0.02336308
  35        -0.19233327
  36         0.00000000
  37        -0.01188996
  38        -0.02274917
  39         0.00000000
  40         0.00141935
  41         0.00386151
  42        -0.00131715
  43         0.00808487
  44         0.00000000
  45         0.00000000
  46        -0.00536580
  47         0.01270607
  48         0.01569518
  49         0.02336308
  50        -0.19233327
  51         0.00000000
  52         0.01188996
  53        -0.02274917
  54         0.00000000
  55         0.00141935
  56         0.00386151
  57        -0.00131715
  58        -0.00808487
  59         0.00000000
  60         0.00000000
  61        -0.08138681
  62        -0.02972421
  63        -0.08138681
  64        -0.02972421
  65        -0.09885688
  66         0.18807948
  67         0.16126525
  68         0.10768284
  69        -0.00436086
  70         0.00000000
  71         0.06419062
  72        -0.00992272
  73         0.00000000
  74         0.00536198
  75         0.01170740
  76        -0.00862515
  77        -0.00145487
  78         0.00000000
  79         0.00000000
  80        -0.09885688
  81         0.18807948
  82         0.16126525
  83        -0.10768284
  84        -0.00436086
  85         0.00000000
  86        -0.06419062
  87        -0.00992272
  88         0.00000000
  89         0.00536198
  90         0.01170740
  91        -0.00862515
  92         0.00145487
  93         0.00000000
  94         0.00000000
  95         0.10747682
  96         0.04636561
  97         0.10747682
  98         0.04636561
Sym=     6a1 
Ene=    -0.7415
Spin= Alpha
Occup=    2.00000
   1        -0.04429223
   2         0.08656709
   3         0.08863492
   4         0.03814733
   5         0.20398604
   6         0.00000000
   7         0.01932573
   8         0.08119938
   9         0.00000000
  10         0.00176773
  11         0.01128361
  12        -0.00369878
  13         0.00692099
  14         0.00000000
  15         0.00000000
  16        -0.04429223
  17         0.08656709
  18         0.08863492
  19        -0.03814733
  20         0.20398604
  21         0.00000000
  22        -0.01932573
  23         0.08119938
  24         0.00000000
  25         0.00176773
  26         0.01128361
  27        -0.00369878
  28        -0.00692099
  29         0.00000000
  30         0.00000000
  31         0.04866891
  32        -0.09651713
  33        -0.04879735
  34         0.07543346
  35        -0.00765945
  36         0.00000000
  37         0.01307420
  38         0.00650058
  39         0.00000000
  40        -0.00463738
  41         0.00039378
  42         0.00400808
  43         0.00185756
  44         0.00000000
  45         0.00000000
  46         0.04866891
  47        -0.09651713
  48        -0.04879735
  49        -0.07543346
  50        -0.00765945
  51         0.00000000
  52        -0.01307420
  53         0.00650058
  54         0.00000000
  55        -0.00463738
  56         0.00039378
  57         0.00400808
  58        -0.00185756
  59         0.00000000
  60         0.00000000
  61         0.15197865
  62         0.08107899
  63         0.15197865
  64         0.08107899
  65        -0.03468977
  66         0.06622189
  67         0.07568338
  68         0.04379330
  69        -0.18802941
  70         0.00000000
  71         0.03205943
  72        -0.07292974
  73         0.00000000
  74         0.00330940
  75         0.00373128
  76        -0.00259054
  77        -0.00747753
  78         0.00000000
  79         0.00000000
  80        -0.03468977
  81         0.06622189
  82         0.07568338
  83        -0.04379330
  84        -0.18802941
  85         0.00000000
  86        -0.03205943
  87        -0.07292974
  88         0.00000000
  89         0.00330940
  90         0.00373128
  91        -0.00259054
  92         0.00747753
  93         0.00000000
  94         0.00000000
  95         0.13009978
  96         0.06891547
  97         0.13009978
  98         0.06891547
Sym=     7a1 
Ene=    -0.6285
Spin= Alpha
Occup=    2.00000
   1        -0.01117034
   2         0.01977477
   3         0.02823925
   4         0.01173309
   5        -0.23210937
   6         0.00000000
   7        -0.00190563
   8        -0.09479860
   9         0.00000000
  10         0.00069048
  11        -0.00974205
  12        -0.00024655
  13        -0.01115118
  14         0.00000000
  15         0.00000000
  16        -0.01117034
  17         0.01977477
  18         0.02823925
  19        -0.01173309
  20        -0.23210937
  21         0.00000000
  22         0.00190563
  23        -0.09479860
  24         0.00000000
  25         0.00069048
  26        -0.00974205
  27        -0.00024655
  28         0.01115118
  29         0.00000000
  30         0.00000000
  31        -0.00319585
  32         0.00361381
  33        -0.02076231
  34         0.01792353
  35         0.23211795
  36         0.00000000
  37         0.00620366
  38         0.04811874
  39         0.00000000
  40        -0.00322152
  41         0.00118843
  42        -0.00041437
  43        -0.01753587
  44         0.00000000
  45         0.00000000
  46        -0.00319585
  47         0.00361381
  48        -0.02076231
  49        -0.01792353
  50         0.23211795
  51         0.00000000
  52        -0.00620366
  53         0.04811874
  54         0.00000000
  55        -0.00322152
  56         0.00118843
  57        -0.00041437
  58         0.01753587
  59         0.00000000
  60         0.00000000
  61        -0.12175314
  62        -0.08755037
  63        -0.12175314
  64        -0.08755037
  65         0.00814920
  66        -0.01887365
  67        -0.02347419
  68        -0.00641570
  69        -0.24651100
  70         0.00000000
  71        -0.00334102
  72        -0.10164538
  73         0.00000000
  74        -0.00128043
  75         0.00682405
  76         0.00016807
  77        -0.00886918
  78         0.00000000
  79         0.00000000
  80         0.00814920
  81        -0.01887365
  82        -0.02347419
  83         0.00641570
  84        -0.24651100
  85         0.00000000
  86         0.00334102
  87        -0.10164538
  88         0.00000000
  89        -0.00128043
  90         0.00682405
  91         0.00016807
  92         0.00886918
  93         0.00000000
  94         0.00000000
  95         0.12114186
  96         0.08643685
  97         0.12114186
  98         0.08643685
Sym=     8a1 
Ene=    -0.7215
Spin= Alpha
Occup=    1.97908
   1         0.00145421
   2        -0.00587329
   3         0.00307180
   4        -0.01021366
   5        -0.00275296
   6         0.00000000
   7        -0.01105212
   8        -0.00480464
   9         0.00000000
  10         0.00025053
  11        -0.00106521
  12         0.00051557
  13        -0.00049794
  14         0.00000000
  15         0.00000000
  16         0.00145421
  17        -0.00587329
  18         0.00307180
  19         0.01021366
  20        -0.00275296
  21         0.00000000
  22         0.01105212
  23        -0.00480464
  24         0.00000000
  25         0.00025053
  26        -0.00106521
  27         0.00051557
  28         0.00049794
  29         0.00000000
  30         0.00000000
  31        -0.03010036
  32         0.06583187
  33         0.07466842
  34         0.03299834
  35        -0.06376610
  36         0.00000000
  37         0.00794951
  38        -0.02643443
  39         0.00000000
  40        -0.00749217
  41         0.00570359
  42        -0.00029798
  43        -0.00473953
  44         0.00000000
  45         0.00000000
  46        -0.03010036
  47         0.06583187
  48         0.07466842
  49        -0.03299834
  50        -0.06376610
  51         0.00000000
  52        -0.00794951
  53        -0.02643443
  54         0.00000000
  55        -0.00749217
  56         0.00570359
  57        -0.00029798
  58         0.00473953
  59         0.00000000
  60         0.00000000
  61        -0.00708234
  62        -0.00318348
  63        -0.00708234
  64        -0.00318348
  65         0.09290794
  66        -0.18939391
  67        -0.12416950
  68         0.38293229
  69        -0.00565486
  70         0.00000000
  71         0.13156892
  72        -0.00750380
  73         0.00000000
  74        -0.01642183
  75         0.01574162
  76         0.00540167
  77         0.00346276
  78         0.00000000
  79         0.00000000
  80         0.09290794
  81        -0.18939391
  82        -0.12416950
  83        -0.38293229
  84        -0.00565486
  85         0.00000000
  86        -0.13156892
  87        -0.00750380
  88         0.00000000
  89        -0.01642183
  90         0.01574162
  91         0.00540167
  92        -0.00346276
  93         0.00000000
  94         0.00000000
  95         0.04624623
  96         0.06217430
  97         0.04624623
  98         0.06217430
Sym=     9a1 
Ene=     0.0244
Spin= Alpha
Occup=    1.92888
   1         0.04710825
   2        -0.09347593
   3        -0.12227079
   4         0.31808035
   5         0.00617760
   6         0.00000000
   7         0.18537744
   8         0.00564618
   9         0.00000000
  10        -0.01189160
  11         0.00388948
  12         0.00184161
  13        -0.00663992
  14         0.00000000
  15         0.00000000
  16         0.04710825
  17        -0.09347593
  18        -0.12227079
  19        -0.31808035
  20         0.00617760
  21         0.00000000
  22        -0.18537744
  23         0.00564618
  24         0.00000000
  25        -0.01189160
  26         0.00388948
  27         0.00184161
  28         0.00663992
  29         0.00000000
  30         0.00000000
  31        -0.04960466
  32         0.10739816
  33         0.12835436
  34         0.15562334
  35         0.03493939
  36         0.00000000
  37         0.08404236
  38         0.00003492
  39         0.00000000
  40        -0.00904878
  41         0.00762107
  42         0.00016943
  43         0.01067379
  44         0.00000000
  45         0.00000000
  46        -0.04960466
  47         0.10739816
  48         0.12835436
  49        -0.15562334
  50         0.03493939
  51         0.00000000
  52        -0.08404236
  53         0.00003492
  54         0.00000000
  55        -0.00904878
  56         0.00762107
  57         0.00016943
  58        -0.01067379
  59         0.00000000
  60         0.00000000
  61         0.03414110
  62         0.04507335
  63         0.03414110
  64         0.04507335
  65        -0.00985632
  66         0.02098583
  67         0.02404218
  68        -0.04328844
  69         0.01389570
  70         0.00000000
  71        -0.02439940
  72         0.00933382
  73         0.00000000
  74         0.00471356
  75        -0.00646850
  76         0.00022081
  77         0.00428406
  78         0.00000000
  79         0.00000000
  80        -0.00985632
  81         0.02098583
  82         0.02404218
  83         0.04328844
  84         0.01389570
  85         0.00000000
  86         0.02439940
  87         0.00933382
  88         0.00000000
  89         0.00471356
  90        -0.00646850
  91         0.00022081
  92        -0.00428406
  93         0.00000000
  94         0.00000000
  95        -0.02417781
  96        -0.03229032
  97        -0.02417781
  98        -0.03229032
Sym=    10a1 
Ene=    -0.0719
Spin= Alpha
Occup=    0.27463
   1         0.00159100
   2        -0.00842156
   3        -0.07214816
   4         0.24047434
   5        -0.04107444
   6         0.00000000
   7         0.17964951
   8         0.04176180
   9         0.00000000
  10        -0.02436980
  11         0.02306320
  12         0.00063835
  13         0.00807298
  14         0.00000000
  15         0.00000000
  16         0.00159100
  17        -0.00842156
  18        -0.07214816
  19        -0.24047434
  20        -0.04107444
  21         0.00000000
  22        -0.17964951
  23         0.04176180
  24         0.00000000
  25        -0.02436980
  26         0.02306320
  27         0.00063835
  28        -0.00807298
  29         0.00000000
  30         0.00000000
  31         0.03808902
  32        -0.10953422
  33        -0.12767238
  34        -0.41578901
  35         0.06673323
  36         0.00000000
  37        -0.29699710
  38         0.03278934
  39         0.00000000
  40        -0.02074008
  41         0.02327122
  42         0.00277613
  43         0.00636167
  44         0.00000000
  45         0.00000000
  46         0.03808902
  47        -0.10953422
  48        -0.12767238
  49         0.41578901
  50         0.06673323
  51         0.00000000
  52         0.29699710
  53         0.03278934
  54         0.00000000
  55        -0.02074008
  56         0.02327122
  57         0.00277613
  58        -0.00636167
  59         0.00000000
  60         0.00000000
  61         0.05824145
  62         0.04126146
  63         0.05824145
  64         0.04126146
  65        -0.00452200
  66         0.00956756
  67         0.00305337
  68         0.12522199
  69         0.04383092
  70         0.00000000
  71         0.09141155
  72        -0.01822642
  73         0.00000000
  74        -0.01163829
  75         0.01499882
  76        -0.00025316
  77        -0.00680400
  78         0.00000000
  79         0.00000000
  80        -0.00452200
  81         0.00956756
  82         0.00305337
  83        -0.12522199
  84         0.04383092
  85         0.00000000
  86        -0.09141155
  87        -0.01822642
  88         0.00000000
  89        -0.01163829
  90         0.01499882
  91        -0.00025316
  92         0.00680400
  93         0.00000000
  94         0.00000000
  95         0.03979647
  96         0.02675335
  97         0.03979647
  98         0.02675335
Sym=    11a1 
Ene=     0.2607
Spin= Alpha
Occup=    0.00000
   1         0.05913694
   2        -0.08590717
   3        -0.69887338
   4        -0.06689000
   5        -0.08651138
   6         0.00000000
   7        -0.25590589
   8        -0.54528194
   9         0.00000000
  10        -0.00505033
  11         0.01014459
  12         0.00046918
  13        -0.00028983
  14         0.00000000
  15         0.00000000
  16         0.05913694
  17        -0.08590717
  18        -0.69887338
  19         0.06689000
  20        -0.08651138
  21         0.00000000
  22         0.25590589